 Entering Gaussian System, Link 0=g16
 Initial command:
 /soft/g16/l1.exe "/tmp/Gau-231182.inp" -scrdir="/tmp/"
 Entering Link 1 = /soft/g16/l1.exe PID=    231183.
  
 Copyright (c) 1988-2019, Gaussian, Inc.  All Rights Reserved.
  
 This is part of the Gaussian(R) 16 program.  It is based on
 the Gaussian(R) 09 system (copyright 2009, Gaussian, Inc.),
 the Gaussian(R) 03 system (copyright 2003, Gaussian, Inc.),
 the Gaussian(R) 98 system (copyright 1998, Gaussian, Inc.),
 the Gaussian(R) 94 system (copyright 1995, Gaussian, Inc.),
 the Gaussian 92(TM) system (copyright 1992, Gaussian, Inc.),
 the Gaussian 90(TM) system (copyright 1990, Gaussian, Inc.),
 the Gaussian 88(TM) system (copyright 1988, Gaussian, Inc.),
 the Gaussian 86(TM) system (copyright 1986, Carnegie Mellon
 University), and the Gaussian 82(TM) system (copyright 1983,
 Carnegie Mellon University). Gaussian is a federally registered
 trademark of Gaussian, Inc.
  
 This software contains proprietary and confidential information,
 including trade secrets, belonging to Gaussian, Inc.
  
 This software is provided under written license and may be
 used, copied, transmitted, or stored only in accord with that
 written license.
  
 The following legend is applicable only to US Government
 contracts under FAR:
  
                    RESTRICTED RIGHTS LEGEND
  
 Use, reproduction and disclosure by the US Government is
 subject to restrictions as set forth in subparagraphs (a)
 and (c) of the Commercial Computer Software - Restricted
 Rights clause in FAR 52.227-19.
  
 Gaussian, Inc.
 340 Quinnipiac St., Bldg. 40, Wallingford CT 06492
  
  
 ---------------------------------------------------------------
 Warning -- This program may not be used in any manner that
 competes with the business of Gaussian, Inc. or will provide
 assistance to any competitor of Gaussian, Inc.  The licensee
 of this program is prohibited from giving any competitor of
 Gaussian, Inc. access to this program.  By using this program,
 the user acknowledges that Gaussian, Inc. is engaged in the
 business of creating and licensing software in the field of
 computational chemistry and represents and warrants to the
 licensee that it is not a competitor of Gaussian, Inc. and that
 it will not use this program in any manner prohibited above.
 ---------------------------------------------------------------
  

 Cite this work as:
 Gaussian 16, Revision C.01,
 M. J. Frisch, G. W. Trucks, H. B. Schlegel, G. E. Scuseria, 
 M. A. Robb, J. R. Cheeseman, G. Scalmani, V. Barone, 
 G. A. Petersson, H. Nakatsuji, X. Li, M. Caricato, A. V. Marenich, 
 J. Bloino, B. G. Janesko, R. Gomperts, B. Mennucci, H. P. Hratchian, 
 J. V. Ortiz, A. F. Izmaylov, J. L. Sonnenberg, D. Williams-Young, 
 F. Ding, F. Lipparini, F. Egidi, J. Goings, B. Peng, A. Petrone, 
 T. Henderson, D. Ranasinghe, V. G. Zakrzewski, J. Gao, N. Rega, 
 G. Zheng, W. Liang, M. Hada, M. Ehara, K. Toyota, R. Fukuda, 
 J. Hasegawa, M. Ishida, T. Nakajima, Y. Honda, O. Kitao, H. Nakai, 
 T. Vreven, K. Throssell, J. A. Montgomery, Jr., J. E. Peralta, 
 F. Ogliaro, M. J. Bearpark, J. J. Heyd, E. N. Brothers, K. N. Kudin, 
 V. N. Staroverov, T. A. Keith, R. Kobayashi, J. Normand, 
 K. Raghavachari, A. P. Rendell, J. C. Burant, S. S. Iyengar, 
 J. Tomasi, M. Cossi, J. M. Millam, M. Klene, C. Adamo, R. Cammi, 
 J. W. Ochterski, R. L. Martin, K. Morokuma, O. Farkas, 
 J. B. Foresman, and D. J. Fox, Gaussian, Inc., Wallingford CT, 2019.
 
 ******************************************
 Gaussian 16:  ES64L-G16RevC.01  3-Jul-2019
                14-Nov-2020 
 ******************************************
 %nprocshared=26
 Will use up to   26 processors via shared memory.
 %mem=40GB
 %chk=CO2.chk
 --------------------------------------------------------------------
 # opt=(cartesian) freq b3lyp/genecp nosymm empiricaldispersion=gd3bj
 --------------------------------------------------------------------
 1/10=7,18=10,26=3,38=1/1,3;
 2/12=2,15=1,17=6,18=5,29=2,40=1/2;
 3/5=7,11=2,16=1,17=8,25=1,30=1,71=1,74=-5,124=41/1,2,3;
 4//1;
 5/5=2,38=5/2;
 6/7=2,8=2,9=2,10=2,28=1/1;
 7/7=1,29=1,30=1/1,2,3,16;
 1/10=7,18=10,26=3/3(2);
 2/15=1,29=1/2;
 99/12=1/99;
 2/15=1,29=1/2;
 3/5=7,6=1,11=2,16=1,17=8,25=1,30=1,71=1,74=-5,82=7,124=41/1,2,3;
 4/5=5,16=3,69=1/1;
 5/5=2,38=5/2;
 7/7=1,30=1/1,2,3,16;
 1/18=10,26=3/3(-5);
 2/15=1,29=1/2;
 6/7=2,8=2,9=2,10=2,19=2,28=1/1;
 99/9=1,12=1/99;
 -------------------
 Title Card Required
 -------------------
 Symbolic Z-matrix:
 Charge =  0 Multiplicity = 1
 C                    -1.64347   0.66495   0.26318 
 O                    -2.90187   0.66495   0.26318 
 O                    -0.38507   0.66495   0.26318 
 

 GradGradGradGradGradGradGradGradGradGradGradGradGradGradGradGradGradGrad
 Berny optimization.
 Initialization pass.
 No Z-matrix variables, so optimization will use Cartesian coordinates.
 Trust Radius=3.00D-01 FncErr=1.00D-07 GrdErr=1.00D-06 EigMax=2.50D+02 EigMin=1.00D-04
 Number of steps in this run=     20 maximum allowed number of steps=    100.
 GradGradGradGradGradGradGradGradGradGradGradGradGradGradGradGradGradGrad

 ---------------------------------------------------------------------------------------------------
                            Z-MATRIX (ANGSTROMS AND DEGREES)
   CD    Cent   Atom    N1       Length/X        N2       Alpha/Y        N3        Beta/Z          J
 ---------------------------------------------------------------------------------------------------
      1      1  C        0  -1.643473          0.664952          0.263177
      2      2  O        0  -2.901873          0.664952          0.263177
      3      3  O        0  -0.385073          0.664952          0.263177
 ---------------------------------------------------------------------------------------------------
                         Z-Matrix orientation:                         
 ---------------------------------------------------------------------
 Center     Atomic      Atomic             Coordinates (Angstroms)
 Number     Number       Type             X           Y           Z
 ---------------------------------------------------------------------
      1          6           0       -1.643473    0.664952    0.263177
      2          8           0       -2.901873    0.664952    0.263177
      3          8           0       -0.385073    0.664952    0.263177
 ---------------------------------------------------------------------
                    Distance matrix (angstroms):
                    1          2          3
     1  C    0.000000
     2  O    1.258400   0.000000
     3  O    1.258400   2.516800   0.000000
 Symmetry turned off by external request.
 Stoichiometry    CO2
 Framework group  D*H[O(C),C*(O.O)]
 Deg. of freedom     1
 Full point group                 D*H     NOp   8
 Rotational constants (GHZ):           0.0000000           9.9762623           9.9762623
 General basis read from cards:  (5D, 7F)
 ======================================================================================================
                                       Pseudopotential Parameters
 ======================================================================================================
  Center     Atomic      Valence      Angular      Power
  Number     Number     Electrons     Momentum     of R      Exponent        Coefficient   SO-Coeffient
 ======================================================================================================
    1          6
                                   No pseudopotential on this center.
    2          8
                                   No pseudopotential on this center.
    3          8
                                   No pseudopotential on this center.
 ======================================================================================================
    42 basis functions,    84 primitive gaussians,    45 cartesian basis functions
    11 alpha electrons       11 beta electrons
       nuclear repulsion energy        53.8260354401 Hartrees.
 NAtoms=    3 NActive=    3 NUniq=    3 SFac= 1.00D+00 NAtFMM=   60 NAOKFM=F Big=F
 Integral buffers will be    131072 words long.
 Raffenetti 2 integral format.
 Two-electron integral symmetry is turned off.
 Nuclear repulsion after empirical dispersion term =       53.8244160934 Hartrees.
 One-electron integrals computed using PRISM.
   1 Symmetry operations used in ECPInt.
 ECPInt:  NShTT=      78 NPrTT=     615 LenC2=      78 LenP2D=     502.
 LDataN:  DoStor=T MaxTD1= 4 Len=   56
 NBasis=    42 RedAO= T EigKep=  9.49D-03  NBF=    42
 NBsUse=    42 1.00D-06 EigRej= -1.00D+00 NBFU=    42
 ExpMin= 1.69D-01 ExpMax= 5.48D+03 ExpMxC= 8.25D+02 IAcc=3 IRadAn=         5 AccDes= 0.00D+00
 Harris functional with IExCor=  402 and IRadAn=       5 diagonalized for initial guess.
 HarFok:  IExCor=  402 AccDes= 0.00D+00 IRadAn=         5 IDoV= 1 UseB2=F ITyADJ=14
 ICtDFT=  3500011 ScaDFX=  1.000000  1.000000  1.000000  1.000000
 FoFCou: FMM=F IPFlag=           0 FMFlag=      100000 FMFlg1=           0
         NFxFlg=           0 DoJE=T BraDBF=F KetDBF=T FulRan=T
         wScrn=  0.000000 ICntrl=       500 IOpCl=  0 I1Cent=   200000004 NGrid=           0
         NMat0=    1 NMatS0=      1 NMatT0=    0 NMatD0=    1 NMtDS0=    0 NMtDT0=    0
 Symmetry not used in FoFCou.
 Keep R1 ints in memory in canonical form, NReq=22987023.
 Requested convergence on RMS density matrix=1.00D-08 within 128 cycles.
 Requested convergence on MAX density matrix=1.00D-06.
 Requested convergence on             energy=1.00D-06.
 No special actions if energy rises.
 Integral accuracy reduced to 1.0D-05 until final iterations.
 Initial convergence to 1.0D-05 achieved.  Increase integral accuracy.
 SCF Done:  E(RB3LYP) =  -188.553009530     A.U. after   10 cycles
            NFock= 10  Conv=0.24D-08     -V/T= 2.0103

 **********************************************************************

            Population analysis using the SCF Density.

 **********************************************************************

 Alpha  occ. eigenvalues --  -19.24993 -19.24985 -10.41184  -1.11993  -1.08014
 Alpha  occ. eigenvalues --   -0.57717  -0.51222  -0.48410  -0.48410  -0.36629
 Alpha  occ. eigenvalues --   -0.36629
 Alpha virt. eigenvalues --   -0.02563  -0.02563   0.03212   0.37591   0.48361
 Alpha virt. eigenvalues --    0.48361   0.54094   0.62189   0.83654   0.86786
 Alpha virt. eigenvalues --    0.86786   0.94518   1.01926   1.01926   1.34944
 Alpha virt. eigenvalues --    1.34944   1.42918   1.42918   1.44981   1.73419
 Alpha virt. eigenvalues --    1.73419   1.90339   1.95608   1.95608   2.00517
 Alpha virt. eigenvalues --    2.00517   2.46798   2.79536   2.79536   2.80743
 Alpha virt. eigenvalues --    3.01750
          Condensed to atoms (all electrons):
               1          2          3
     1  C    4.255372   0.530616   0.530616
     2  O    0.530616   7.838274  -0.027192
     3  O    0.530616  -0.027192   7.838274
 Mulliken charges:
               1
     1  C    0.683396
     2  O   -0.341698
     3  O   -0.341698
 Sum of Mulliken charges =  -0.00000
 Mulliken charges with hydrogens summed into heavy atoms:
               1
     1  C    0.683396
     2  O   -0.341698
     3  O   -0.341698
 Electronic spatial extent (au):  <R**2>=            379.1156
 Charge=             -0.0000 electrons
 Dipole moment (field-independent basis, Debye):
    X=             -0.0000    Y=             -0.0000    Z=             -0.0000  Tot=              0.0000
 Quadrupole moment (field-independent basis, Debye-Ang):
   XX=            -19.1016   YY=            -14.8319   ZZ=            -14.8319
   XY=             -0.0000   XZ=             -0.0000   YZ=             -0.0000
 Traceless Quadrupole moment (field-independent basis, Debye-Ang):
   XX=             -2.8464   YY=              1.4232   ZZ=              1.4232
   XY=             -0.0000   XZ=             -0.0000   YZ=             -0.0000
 Octapole moment (field-independent basis, Debye-Ang**2):
  XXX=             94.1788  YYY=            -29.5876  ZZZ=            -11.7103  XYY=             24.3759
  XXY=            -12.7016  XXZ=             -5.0271  XZZ=             24.3759  YZZ=             -9.8625
  YYZ=             -3.9034  XYZ=             -0.0000
 Hexadecapole moment (field-independent basis, Debye-Ang**3):
 XXXX=           -422.9079 YYYY=            -50.2715 ZZZZ=            -17.0867 XXXY=             62.6244
 XXXZ=             24.7857 YYYX=             48.6264 YYYZ=             -7.7868 ZZZX=             19.2455
 ZZZY=             -7.7868 XXYY=            -69.0517 XXZZ=            -61.9287 YYZZ=            -11.2264
 XXYZ=             -3.3428 YYXZ=              6.4152 ZZXY=             16.2088
 N-N= 5.382441609345D+01 E-N=-5.505616764273D+02  KE= 1.866231613497D+02
   1 Symmetry operations used in ECPInt.
 ECPInt:  NShTT=      78 NPrTT=     615 LenC2=      78 LenP2D=     502.
 LDataN:  DoStor=T MaxTD1= 5 Len=  102
 Calling FoFJK, ICntrl=      2127 FMM=F ISym2X=0 I1Cent= 0 IOpClX= 0 NMat=1 NMatS=1 NMatT=0.
 -------------------------------------------------------------------
 Center     Atomic                   Forces (Hartrees/Bohr)
 Number     Number              X              Y              Z
 -------------------------------------------------------------------
      1        6          -0.000000000    0.000000000   -0.000000000
      2        8           0.140730635   -0.000000000   -0.000000000
      3        8          -0.140730635   -0.000000000    0.000000000
 -------------------------------------------------------------------
 Cartesian Forces:  Max     0.140730635 RMS     0.066341057

 GradGradGradGradGradGradGradGradGradGradGradGradGradGradGradGradGradGrad
 Berny optimization.
 Search for a local minimum.
 Step number   1 out of a maximum of   20
 All quantities printed in internal units (Hartrees-Bohrs-Radians)
 Second derivative matrix not updated -- first step.
 The second derivative matrix:
                          X1        Y1        Z1        X2        Y2
           X1           1.60418
           Y1           0.00000   0.17683
           Z1           0.00000   0.00000   0.17683
           X2          -0.80209   0.00000   0.00000   0.80209
           Y2           0.00000  -0.08842   0.00000   0.00000   0.04421
           Z2           0.00000   0.00000  -0.08842   0.00000   0.00000
           X3          -0.80209   0.00000   0.00000   0.00000   0.00000
           Y3           0.00000  -0.08842   0.00000   0.00000   0.04421
           Z3           0.00000   0.00000  -0.08842   0.00000   0.00000
                          Z2        X3        Y3        Z3
           Z2           0.04421
           X3           0.00000   0.80209
           Y3           0.00000   0.00000   0.04421
           Z3           0.04421   0.00000   0.00000   0.04421
 ITU=  0
     Eigenvalues ---    0.26410   0.26410   0.80209   2.39579
 RFO step:  Lambda=-4.66685418D-02 EMin= 2.64096246D-01
 Linear search not attempted -- first point.
 B after Tr=     0.000000    0.007924   -0.019572
         Rot=    0.999969   -0.007812    0.000000    0.000000 Ang=  -0.90 deg.
 Variable       Old X    -DE/DX   Delta X   Delta X   Delta X     New X
                                 (Linear)    (Quad)   (Total)
    X1       -3.10571  -0.00000   0.00000  -0.00000  -0.00000  -3.10571
    Y1        1.25658   0.00000   0.00000   0.00000   0.00000   1.25658
    Z1        0.49733  -0.00000   0.00000  -0.00000   0.00000   0.49733
    X2       -5.48374   0.14073   0.00000   0.16581   0.16581  -5.31794
    Y2        1.25658  -0.00000   0.00000  -0.00000  -0.00000   1.25658
    Z2        0.49733  -0.00000   0.00000   0.00000  -0.00000   0.49733
    X3       -0.72768  -0.14073   0.00000  -0.16581  -0.16581  -0.89349
    Y3        1.25658  -0.00000   0.00000  -0.00000  -0.00000   1.25658
    Z3        0.49733   0.00000   0.00000   0.00000  -0.00000   0.49733
         Item               Value     Threshold  Converged?
 Maximum Force            0.140731     0.000450     NO 
 RMS     Force            0.066341     0.000300     NO 
 Maximum Displacement     0.165808     0.001800     NO 
 RMS     Displacement     0.078163     0.001200     NO 
 Predicted change in Energy=-2.461730D-02
 GradGradGradGradGradGradGradGradGradGradGradGradGradGradGradGradGradGrad

                          Input orientation:                          
 ---------------------------------------------------------------------
 Center     Atomic      Atomic             Coordinates (Angstroms)
 Number     Number       Type             X           Y           Z
 ---------------------------------------------------------------------
      1          6           0       -1.643473    0.664952    0.263177
      2          8           0       -2.814131    0.664952    0.263177
      3          8           0       -0.472815    0.664952    0.263177
 ---------------------------------------------------------------------
                    Distance matrix (angstroms):
                    1          2          3
     1  C    0.000000
     2  O    1.170658   0.000000
     3  O    1.170658   2.341316   0.000000
 Symmetry turned off by external request.
 Stoichiometry    CO2
 Framework group  D*H[O(C),C*(O.O)]
 Deg. of freedom     1
 Full point group                 D*H     NOp   8
 Rotational constants (GHZ):           0.0000000          11.5277642          11.5277642
 Basis read from rwf:  (5D, 7F)
 Pseudo-potential data read from rwf file.
    42 basis functions,    84 primitive gaussians,    45 cartesian basis functions
    11 alpha electrons       11 beta electrons
       nuclear repulsion energy        57.8603432488 Hartrees.
 NAtoms=    3 NActive=    3 NUniq=    3 SFac= 1.00D+00 NAtFMM=   60 NAOKFM=F Big=F
 Integral buffers will be    131072 words long.
 Raffenetti 2 integral format.
 Two-electron integral symmetry is turned off.
 Nuclear repulsion after empirical dispersion term =       57.8587019019 Hartrees.
 One-electron integrals computed using PRISM.
   1 Symmetry operations used in ECPInt.
 ECPInt:  NShTT=      78 NPrTT=     615 LenC2=      78 LenP2D=     510.
 LDataN:  DoStor=T MaxTD1= 4 Len=   56
 NBasis=    42 RedAO= T EigKep=  8.59D-03  NBF=    42
 NBsUse=    42 1.00D-06 EigRej= -1.00D+00 NBFU=    42
 Initial guess from the checkpoint file:  "CO2.chk"
 B after Tr=     0.000000    0.007924   -0.019572
         Rot=    0.999969   -0.007812   -0.000000   -0.000000 Ang=  -0.90 deg.
 ExpMin= 1.69D-01 ExpMax= 5.48D+03 ExpMxC= 8.25D+02 IAcc=3 IRadAn=         5 AccDes= 0.00D+00
 Harris functional with IExCor=  402 and IRadAn=       5 diagonalized for initial guess.
 HarFok:  IExCor=  402 AccDes= 0.00D+00 IRadAn=         5 IDoV= 1 UseB2=F ITyADJ=14
 ICtDFT=  3500011 ScaDFX=  1.000000  1.000000  1.000000  1.000000
 FoFCou: FMM=F IPFlag=           0 FMFlag=      100000 FMFlg1=           0
         NFxFlg=           0 DoJE=T BraDBF=F KetDBF=T FulRan=T
         wScrn=  0.000000 ICntrl=       500 IOpCl=  0 I1Cent=   200000004 NGrid=           0
         NMat0=    1 NMatS0=      1 NMatT0=    0 NMatD0=    1 NMtDS0=    0 NMtDT0=    0
 Symmetry not used in FoFCou.
 Keep R1 ints in memory in canonical form, NReq=22987023.
 Requested convergence on RMS density matrix=1.00D-08 within 128 cycles.
 Requested convergence on MAX density matrix=1.00D-06.
 Requested convergence on             energy=1.00D-06.
 No special actions if energy rises.
 Integral accuracy reduced to 1.0D-05 until final iterations.
 Initial convergence to 1.0D-05 achieved.  Increase integral accuracy.
 SCF Done:  E(RB3LYP) =  -188.579206338     A.U. after   10 cycles
            NFock= 10  Conv=0.17D-08     -V/T= 2.0071
   1 Symmetry operations used in ECPInt.
 ECPInt:  NShTT=      78 NPrTT=     615 LenC2=      78 LenP2D=     510.
 LDataN:  DoStor=T MaxTD1= 5 Len=  102
 Calling FoFJK, ICntrl=      2127 FMM=F ISym2X=0 I1Cent= 0 IOpClX= 0 NMat=1 NMatS=1 NMatT=0.
 -------------------------------------------------------------------
 Center     Atomic                   Forces (Hartrees/Bohr)
 Number     Number              X              Y              Z
 -------------------------------------------------------------------
      1        6           0.000000000   -0.000000000    0.000000000
      2        8           0.002352181    0.000000000   -0.000000000
      3        8          -0.002352181    0.000000000   -0.000000000
 -------------------------------------------------------------------
 Cartesian Forces:  Max     0.002352181 RMS     0.001108829

 GradGradGradGradGradGradGradGradGradGradGradGradGradGradGradGradGradGrad
 Berny optimization.
 Search for a local minimum.
 Step number   2 out of a maximum of   20
 All quantities printed in internal units (Hartrees-Bohrs-Radians)
 Update second derivatives using D2CorN and points    1    2
 DE= -2.62D-02 DEPred=-2.46D-02 R= 1.06D+00
 TightC=F SS=  1.41D+00  RLast= 2.34D-01 DXNew= 5.0454D-01 7.0346D-01
 Trust test= 1.06D+00 RLast= 2.34D-01 DXMaxT set to 5.05D-01
 The second derivative matrix:
                          X1        Y1        Z1        X2        Y2
           X1           1.60418
           Y1          -0.00000   0.17683
           Z1          -0.00000  -0.00000   0.17683
           X2          -0.80209   0.00000  -0.00000   0.81833
           Y2           0.00000  -0.08842   0.00000  -0.00000   0.04421
           Z2           0.00000   0.00000  -0.08842   0.00000  -0.00000
           X3          -0.80209  -0.00000   0.00000  -0.01624   0.00000
           Y3           0.00000  -0.08842   0.00000  -0.00000   0.04421
           Z3           0.00000   0.00000  -0.08842   0.00000  -0.00000
                          Z2        X3        Y3        Z3
           Z2           0.04421
           X3          -0.00000   0.81833
           Y3          -0.00000   0.00000   0.04421
           Z3           0.04421  -0.00000  -0.00000   0.04421
 ITU=  1  0
     Eigenvalues ---    0.26410   0.26410   0.83457   2.39579
 RFO step:  Lambda= 0.00000000D+00 EMin= 2.64096246D-01
 Quartic linear search produced a step of  0.01263.
 B after Tr=    -0.000000   -0.007628    0.019723
         Rot=    0.999969    0.007824   -0.000000    0.000000 Ang=   0.90 deg.
 Variable       Old X    -DE/DX   Delta X   Delta X   Delta X     New X
                                 (Linear)    (Quad)   (Total)
    X1       -3.10571   0.00000  -0.00000   0.00000   0.00000  -3.10571
    Y1        1.25658  -0.00000   0.00000  -0.00000  -0.00000   1.25658
    Z1        0.49733   0.00000   0.00000   0.00000   0.00000   0.49733
    X2       -5.31794   0.00235   0.00209  -0.00000   0.00209  -5.31584
    Y2        1.25658   0.00000  -0.00000   0.00000   0.00000   1.25658
    Z2        0.49733  -0.00000  -0.00000  -0.00000  -0.00000   0.49733
    X3       -0.89349  -0.00235  -0.00209  -0.00000  -0.00209  -0.89558
    Y3        1.25658   0.00000  -0.00000   0.00000   0.00000   1.25658
    Z3        0.49733  -0.00000  -0.00000  -0.00000  -0.00000   0.49733
         Item               Value     Threshold  Converged?
 Maximum Force            0.002352     0.000450     NO 
 RMS     Force            0.001109     0.000300     NO 
 Maximum Displacement     0.002095     0.001800     NO 
 RMS     Displacement     0.000987     0.001200     YES
 Predicted change in Energy=-6.192123D-06
 GradGradGradGradGradGradGradGradGradGradGradGradGradGradGradGradGradGrad

                          Input orientation:                          
 ---------------------------------------------------------------------
 Center     Atomic      Atomic             Coordinates (Angstroms)
 Number     Number       Type             X           Y           Z
 ---------------------------------------------------------------------
      1          6           0       -1.643473    0.664952    0.263177
      2          8           0       -2.813022    0.664952    0.263177
      3          8           0       -0.473923    0.664952    0.263177
 ---------------------------------------------------------------------
                    Distance matrix (angstroms):
                    1          2          3
     1  C    0.000000
     2  O    1.169550   0.000000
     3  O    1.169550   2.339100   0.000000
 Symmetry turned off by external request.
 Stoichiometry    CO2
 Framework group  D*H[O(C),C*(O.O)]
 Deg. of freedom     1
 Full point group                 D*H     NOp   8
 Rotational constants (GHZ):           0.0000000          11.5496242          11.5496242
 Basis read from rwf:  (5D, 7F)
 Pseudo-potential data read from rwf file.
    42 basis functions,    84 primitive gaussians,    45 cartesian basis functions
    11 alpha electrons       11 beta electrons
       nuclear repulsion energy        57.9151772917 Hartrees.
 NAtoms=    3 NActive=    3 NUniq=    3 SFac= 1.00D+00 NAtFMM=   60 NAOKFM=F Big=F
 Integral buffers will be    131072 words long.
 Raffenetti 2 integral format.
 Two-electron integral symmetry is turned off.
 Nuclear repulsion after empirical dispersion term =       57.9135357140 Hartrees.
 One-electron integrals computed using PRISM.
   1 Symmetry operations used in ECPInt.
 ECPInt:  NShTT=      78 NPrTT=     615 LenC2=      78 LenP2D=     510.
 LDataN:  DoStor=T MaxTD1= 4 Len=   56
 NBasis=    42 RedAO= T EigKep=  8.58D-03  NBF=    42
 NBsUse=    42 1.00D-06 EigRej= -1.00D+00 NBFU=    42
 Initial guess from the checkpoint file:  "CO2.chk"
 B after Tr=    -0.000000   -0.000496    0.001256
         Rot=    1.000000    0.000500   -0.000000   -0.000000 Ang=   0.06 deg.
 Keep R1 ints in memory in canonical form, NReq=22987023.
 Requested convergence on RMS density matrix=1.00D-08 within 128 cycles.
 Requested convergence on MAX density matrix=1.00D-06.
 Requested convergence on             energy=1.00D-06.
 No special actions if energy rises.
 SCF Done:  E(RB3LYP) =  -188.579211229     A.U. after    6 cycles
            NFock=  6  Conv=0.79D-08     -V/T= 2.0070
   1 Symmetry operations used in ECPInt.
 ECPInt:  NShTT=      78 NPrTT=     615 LenC2=      78 LenP2D=     510.
 LDataN:  DoStor=T MaxTD1= 5 Len=  102
 Calling FoFJK, ICntrl=      2127 FMM=F ISym2X=0 I1Cent= 0 IOpClX= 0 NMat=1 NMatS=1 NMatT=0.
 -------------------------------------------------------------------
 Center     Atomic                   Forces (Hartrees/Bohr)
 Number     Number              X              Y              Z
 -------------------------------------------------------------------
      1        6           0.000000003    0.000000000   -0.000000000
      2        8          -0.000020375   -0.000000000    0.000000000
      3        8           0.000020372   -0.000000000    0.000000000
 -------------------------------------------------------------------
 Cartesian Forces:  Max     0.000020375 RMS     0.000009604

 GradGradGradGradGradGradGradGradGradGradGradGradGradGradGradGradGradGrad
 Berny optimization.
 Search for a local minimum.
 Step number   3 out of a maximum of   20
 All quantities printed in internal units (Hartrees-Bohrs-Radians)
 Update second derivatives using D2CorN and points    2    3
 DE= -4.89D-06 DEPred=-6.19D-06 R= 7.90D-01
 TightC=F SS=  1.41D+00  RLast= 2.96D-03 DXNew= 8.4853D-01 8.8863D-03
 Trust test= 7.90D-01 RLast= 2.96D-03 DXMaxT set to 5.05D-01
 The second derivative matrix:
                          X1        Y1        Z1        X2        Y2
           X1           1.60418
           Y1           0.00000   0.17683
           Z1          -0.00000  -0.00000   0.17683
           X2          -0.80209  -0.00000   0.00000   0.96741
           Y2          -0.00000  -0.08842   0.00000   0.00000   0.04421
           Z2           0.00000   0.00000  -0.08842  -0.00000  -0.00000
           X3          -0.80209   0.00000  -0.00000  -0.16532  -0.00000
           Y3          -0.00000  -0.08842   0.00000   0.00000   0.04421
           Z3           0.00000   0.00000  -0.08842  -0.00000  -0.00000
                          Z2        X3        Y3        Z3
           Z2           0.04421
           X3           0.00000   0.96741
           Y3          -0.00000  -0.00000   0.04421
           Z3           0.04421   0.00000  -0.00000   0.04421
 ITU=  1  1  0
     Eigenvalues ---    0.26410   0.26410   1.13274   2.39579
 RFO step:  Lambda= 0.00000000D+00 EMin= 2.64096246D-01
 Quartic linear search produced a step of -0.00855.
 B after Tr=    -0.000000   -0.000011    0.000029
         Rot=    1.000000    0.000011   -0.000000   -0.000000 Ang=   0.00 deg.
 Variable       Old X    -DE/DX   Delta X   Delta X   Delta X     New X
                                 (Linear)    (Quad)   (Total)
    X1       -3.10571   0.00000  -0.00000   0.00000   0.00000  -3.10571
    Y1        1.25658   0.00000   0.00000   0.00000   0.00000   1.25658
    Z1        0.49733  -0.00000  -0.00000  -0.00000  -0.00000   0.49733
    X2       -5.31584  -0.00002  -0.00002  -0.00000  -0.00002  -5.31586
    Y2        1.25658  -0.00000  -0.00000  -0.00000  -0.00000   1.25658
    Z2        0.49733   0.00000   0.00000   0.00000   0.00000   0.49733
    X3       -0.89558   0.00002   0.00002  -0.00000   0.00002  -0.89557
    Y3        1.25658  -0.00000  -0.00000  -0.00000  -0.00000   1.25658
    Z3        0.49733   0.00000   0.00000   0.00000   0.00000   0.49733
         Item               Value     Threshold  Converged?
 Maximum Force            0.000020     0.000450     YES
 RMS     Force            0.000010     0.000300     YES
 Maximum Displacement     0.000018     0.001800     YES
 RMS     Displacement     0.000008     0.001200     YES
 Predicted change in Energy=-3.664355D-10
 Optimization completed.
    -- Stationary point found.
 GradGradGradGradGradGradGradGradGradGradGradGradGradGradGradGradGradGrad

                          Input orientation:                          
 ---------------------------------------------------------------------
 Center     Atomic      Atomic             Coordinates (Angstroms)
 Number     Number       Type             X           Y           Z
 ---------------------------------------------------------------------
      1          6           0       -1.643473    0.664952    0.263177
      2          8           0       -2.813022    0.664952    0.263177
      3          8           0       -0.473923    0.664952    0.263177
 ---------------------------------------------------------------------
                    Distance matrix (angstroms):
                    1          2          3
     1  C    0.000000
     2  O    1.169550   0.000000
     3  O    1.169550   2.339100   0.000000
 Symmetry turned off by external request.
 Stoichiometry    CO2
 Framework group  D*H[O(C),C*(O.O)]
 Deg. of freedom     1
 Full point group                 D*H     NOp   8
 Rotational constants (GHZ):           0.0000000          11.5496242          11.5496242

 **********************************************************************

            Population analysis using the SCF Density.

 **********************************************************************

 Alpha  occ. eigenvalues --  -19.23308 -19.23304 -10.38330  -1.16020  -1.11901
 Alpha  occ. eigenvalues --   -0.56148  -0.51602  -0.51226  -0.51226  -0.36945
 Alpha  occ. eigenvalues --   -0.36945
 Alpha virt. eigenvalues --    0.02995   0.02995   0.08465   0.37116   0.47301
 Alpha virt. eigenvalues --    0.47301   0.58776   0.73811   0.82271   0.87465
 Alpha virt. eigenvalues --    0.87465   1.04206   1.04206   1.04601   1.39435
 Alpha virt. eigenvalues --    1.39435   1.40645   1.40645   1.48653   1.72701
 Alpha virt. eigenvalues --    1.72701   1.91588   2.02769   2.02769   2.12114
 Alpha virt. eigenvalues --    2.12114   2.77974   2.91524   2.95366   2.95366
 Alpha virt. eigenvalues --    3.15693
          Condensed to atoms (all electrons):
               1          2          3
     1  C    4.117245   0.621925   0.621925
     2  O    0.621925   7.724510  -0.026983
     3  O    0.621925  -0.026983   7.724510
 Mulliken charges:
               1
     1  C    0.638905
     2  O   -0.319452
     3  O   -0.319452
 Sum of Mulliken charges =  -0.00000
 Mulliken charges with hydrogens summed into heavy atoms:
               1
     1  C    0.638905
     2  O   -0.319452
     3  O   -0.319452
 Electronic spatial extent (au):  <R**2>=            366.0252
 Charge=             -0.0000 electrons
 Dipole moment (field-independent basis, Debye):
    X=              0.0000    Y=             -0.0000    Z=              0.0000  Tot=              0.0000
 Quadrupole moment (field-independent basis, Debye-Ang):
   XX=            -18.8614   YY=            -14.4378   ZZ=            -14.4378
   XY=              0.0000   XZ=              0.0000   YZ=              0.0000
 Traceless Quadrupole moment (field-independent basis, Debye-Ang):
   XX=             -2.9491   YY=              1.4745   ZZ=              1.4745
   XY=              0.0000   XZ=              0.0000   YZ=              0.0000
 Octapole moment (field-independent basis, Debye-Ang**2):
  XXX=             92.9948  YYY=            -28.8014  ZZZ=            -11.3991  XYY=             23.7282
  XXY=            -12.5419  XXZ=             -4.9639  XZZ=             23.7282  YZZ=             -9.6005
  YYZ=             -3.7997  XYZ=              0.0000
 Hexadecapole moment (field-independent basis, Debye-Ang**3):
 XXXX=           -405.8108 YYYY=            -48.6325 ZZZZ=            -16.3293 XXXY=             61.8370
 XXXZ=             24.4741 YYYX=             47.3343 YYYZ=             -7.5799 ZZZX=             18.7341
 ZZZY=             -7.5799 XXYY=            -65.3584 XXZZ=            -58.3250 YYZZ=            -10.8270
 XXYZ=             -3.3007 YYXZ=              6.2447 ZZXY=             15.7781
 N-N= 5.791353571404D+01 E-N=-5.592107479607D+02  KE= 1.872628946396D+02
 Unable to Open any file for archive entry.
 1\1\GINC-NODE4\FOpt\RB3LYP\GenECP\C1O2\WEICHI\14-Nov-2020\0\\# opt=(ca
 rtesian) freq b3lyp/genecp nosymm empiricaldispersion=gd3bj\\Title Car
 d Required\\0,1\C,-1.64347268,0.66495162,0.26317669\O,-2.8130224624,0.
 66495162,0.26317669\O,-0.4739228976,0.66495162,0.26317669\\Version=ES6
 4L-G16RevC.01\HF=-188.5792112\RMSD=7.874e-09\RMSF=9.604e-06\Dipole=0.,
 0.,0.\Quadrupole=-2.1925522,1.0962761,1.0962761,0.,0.,0.\PG=D*H [O(C1)
 ,C*(O1.O1)]\\@
 The archive entry for this job was punched.


 ALL SCIENCE IS EITHER PHYSICS, OR STAMP COLLECTING.
   --ERNEST RUTHERFORD, 1871-1937.
 Job cpu time:       0 days  0 hours  1 minutes 22.0 seconds.
 Elapsed time:       0 days  0 hours  0 minutes  4.2 seconds.
 File lengths (MBytes):  RWF=      6 Int=      0 D2E=      0 Chk=      2 Scr=      1
 Normal termination of Gaussian 16 at Sat Nov 14 11:26:49 2020.
 Link1:  Proceeding to internal job step number  2.
 ------------------------------------------------------------------
 #N Geom=AllCheck Guess=TCheck SCRF=Check GenChk RB3LYP/GenECP Freq
 ------------------------------------------------------------------
 1/10=4,29=7,30=1,38=1,40=1/1,3;
 2/12=2,15=1,40=1/2;
 3/5=7,6=2,11=2,14=-4,16=1,17=8,25=1,30=1,70=2,71=2,74=-5,82=7,116=1,124=41,140=1/1,2,3;
 4/5=101/1;
 5/5=2,38=6,98=1/2;
 8/6=4,10=90,11=11/1;
 11/6=1,8=1,9=11,15=111,16=1,31=1/1,2,10;
 10/6=1,31=1/2;
 6/7=2,8=2,9=2,10=2,28=1/1;
 7/8=1,10=1,25=1,30=1/1,2,3,16;
 1/10=4,30=1/3;
 99//99;
 Structure from the checkpoint file:  "CO2.chk"
 -------------------
 Title Card Required
 -------------------
 Charge =  0 Multiplicity = 1
 No Z-Matrix found in chk file; cartesian coordinates used.
  C                                                -1.643472679969      0.664951620000      0.263176690000
  O                                                -2.813022462391      0.664951620000      0.263176690000
  O                                                -0.473922897640      0.664951620000      0.263176690000
 Recover connectivity data from disk.

 GradGradGradGradGradGradGradGradGradGradGradGradGradGradGradGradGradGrad
 Berny optimization.
 Initialization pass.
 Trust Radius=3.00D-01 FncErr=1.00D-07 GrdErr=1.00D-07 EigMax=2.50D+02 EigMin=1.00D-04
 Number of steps in this run=      2 maximum allowed number of steps=      2.
 GradGradGradGradGradGradGradGradGradGradGradGradGradGradGradGradGradGrad

                          Input orientation:                          
 ---------------------------------------------------------------------
 Center     Atomic      Atomic             Coordinates (Angstroms)
 Number     Number       Type             X           Y           Z
 ---------------------------------------------------------------------
      1          6           0       -1.643473    0.664952    0.263177
      2          8           0       -2.813022    0.664952    0.263177
      3          8           0       -0.473923    0.664952    0.263177
 ---------------------------------------------------------------------
                    Distance matrix (angstroms):
                    1          2          3
     1  C    0.000000
     2  O    1.169550   0.000000
     3  O    1.169550   2.339100   0.000000
 Symmetry turned off by external request.
 Stoichiometry    CO2
 Framework group  D*H[O(C),C*(O.O)]
 Deg. of freedom     1
 Full point group                 D*H     NOp   8
 Rotational constants (GHZ):           0.0000000          11.5496242          11.5496242
 Basis read from chk: "CO2.chk" (5D, 7F)
 Pseudo-potential data read from chk file.
    42 basis functions,    84 primitive gaussians,    45 cartesian basis functions
    11 alpha electrons       11 beta electrons
       nuclear repulsion energy        57.9151772917 Hartrees.
 NAtoms=    3 NActive=    3 NUniq=    3 SFac= 1.00D+00 NAtFMM=   60 NAOKFM=F Big=F
 Integral buffers will be    131072 words long.
 Raffenetti 2 integral format.
 Two-electron integral symmetry is turned off.
 Nuclear repulsion after empirical dispersion term =       57.9135357140 Hartrees.
 One-electron integrals computed using PRISM.
   1 Symmetry operations used in ECPInt.
 ECPInt:  NShTT=      78 NPrTT=     615 LenC2=      78 LenP2D=     510.
 LDataN:  DoStor=T MaxTD1= 4 Len=   56
 NBasis=    42 RedAO= T EigKep=  8.58D-03  NBF=    42
 NBsUse=    42 1.00D-06 EigRej= -1.00D+00 NBFU=    42
 Initial guess from the checkpoint file:  "CO2.chk"
 B after Tr=     0.000000    0.000000    0.000000
         Rot=    1.000000    0.000000    0.000000    0.000000 Ang=   0.00 deg.
 Keep R1 ints in memory in canonical form, NReq=22987023.
 Requested convergence on RMS density matrix=1.00D-08 within 128 cycles.
 Requested convergence on MAX density matrix=1.00D-06.
 Requested convergence on             energy=1.00D-06.
 No special actions if energy rises.
 SCF Done:  E(RB3LYP) =  -188.579211229     A.U. after    1 cycles
            NFock=  1  Conv=0.98D-09     -V/T= 2.0070
 DoSCS=F DFT=T ScalE2(SS,OS)=  1.000000  1.000000
 Range of M.O.s used for correlation:     1    42
 NBasis=    42 NAE=    11 NBE=    11 NFC=     0 NFV=     0
 NROrb=     42 NOA=    11 NOB=    11 NVA=    31 NVB=    31
   1 Symmetry operations used in ECPInt.
 ECPInt:  NShTT=      78 NPrTT=     615 LenC2=      78 LenP2D=     510.
 LDataN:  DoStor=T MaxTD1= 5 Len=  102
 Symmetrizing basis deriv contribution to polar:
 IMax=3 JMax=2 DiffMx= 0.00D+00
 G2DrvN: will do     4 centers at a time, making    1 passes.
 Calling FoFCou, ICntrl=  3107 FMM=F I1Cent=   0 AccDes= 0.00D+00.
 End of G2Drv F.D. properties file   721 does not exist.
 End of G2Drv F.D. properties file   722 does not exist.
 End of G2Drv F.D. properties file   788 does not exist.
          IDoAtm=111
          Differentiating once with respect to electric field.
                with respect to dipole field.
          Differentiating once with respect to nuclear coordinates.
 Keep R1 ints in memory in canonical form, NReq=22898641.
          There are    12 degrees of freedom in the 1st order CPHF.  IDoFFX=6 NUNeed=     3.
      9 vectors produced by pass  0 Test12= 2.84D-15 8.33D-09 XBig12= 2.65D+01 3.35D+00.
 AX will form     9 AO Fock derivatives at one time.
      9 vectors produced by pass  1 Test12= 2.84D-15 8.33D-09 XBig12= 9.51D+00 1.34D+00.
      9 vectors produced by pass  2 Test12= 2.84D-15 8.33D-09 XBig12= 3.66D-02 7.93D-02.
      9 vectors produced by pass  3 Test12= 2.84D-15 8.33D-09 XBig12= 1.33D-04 5.16D-03.
      9 vectors produced by pass  4 Test12= 2.84D-15 8.33D-09 XBig12= 4.29D-07 2.77D-04.
      7 vectors produced by pass  5 Test12= 2.84D-15 8.33D-09 XBig12= 5.38D-09 3.91D-05.
      2 vectors produced by pass  6 Test12= 2.84D-15 8.33D-09 XBig12= 1.88D-11 1.47D-06.
      1 vectors produced by pass  7 Test12= 2.84D-15 8.33D-09 XBig12= 8.19D-15 4.48D-08.
 InvSVY:  IOpt=1 It=  1 EMax= 4.44D-16
 Solved reduced A of dimension    55 with     9 vectors.
 Isotropic polarizability for W=    0.000000       12.45 Bohr**3.
 End of Minotr F.D. properties file   721 does not exist.
 End of Minotr F.D. properties file   722 does not exist.
 End of Minotr F.D. properties file   788 does not exist.

 **********************************************************************

            Population analysis using the SCF Density.

 **********************************************************************

 Alpha  occ. eigenvalues --  -19.23308 -19.23304 -10.38330  -1.16020  -1.11901
 Alpha  occ. eigenvalues --   -0.56148  -0.51602  -0.51226  -0.51226  -0.36945
 Alpha  occ. eigenvalues --   -0.36945
 Alpha virt. eigenvalues --    0.02995   0.02995   0.08465   0.37116   0.47301
 Alpha virt. eigenvalues --    0.47301   0.58776   0.73811   0.82271   0.87465
 Alpha virt. eigenvalues --    0.87465   1.04206   1.04206   1.04601   1.39435
 Alpha virt. eigenvalues --    1.39435   1.40645   1.40645   1.48653   1.72701
 Alpha virt. eigenvalues --    1.72701   1.91588   2.02769   2.02769   2.12114
 Alpha virt. eigenvalues --    2.12114   2.77974   2.91524   2.95366   2.95366
 Alpha virt. eigenvalues --    3.15693
          Condensed to atoms (all electrons):
               1          2          3
     1  C    4.117245   0.621925   0.621925
     2  O    0.621925   7.724510  -0.026983
     3  O    0.621925  -0.026983   7.724510
 Mulliken charges:
               1
     1  C    0.638905
     2  O   -0.319452
     3  O   -0.319452
 Sum of Mulliken charges =   0.00000
 Mulliken charges with hydrogens summed into heavy atoms:
               1
     1  C    0.638905
     2  O   -0.319452
     3  O   -0.319452
 APT charges:
               1
     1  C    1.086726
     2  O   -0.543363
     3  O   -0.543363
 Sum of APT charges =   0.00000
 APT charges with hydrogens summed into heavy atoms:
               1
     1  C    1.086726
     2  O   -0.543363
     3  O   -0.543363
 Electronic spatial extent (au):  <R**2>=            366.0252
 Charge=             -0.0000 electrons
 Dipole moment (field-independent basis, Debye):
    X=             -0.0000    Y=             -0.0000    Z=              0.0000  Tot=              0.0000
 Quadrupole moment (field-independent basis, Debye-Ang):
   XX=            -18.8614   YY=            -14.4378   ZZ=            -14.4378
   XY=             -0.0000   XZ=             -0.0000   YZ=              0.0000
 Traceless Quadrupole moment (field-independent basis, Debye-Ang):
   XX=             -2.9491   YY=              1.4745   ZZ=              1.4745
   XY=             -0.0000   XZ=             -0.0000   YZ=              0.0000
 Octapole moment (field-independent basis, Debye-Ang**2):
  XXX=             92.9948  YYY=            -28.8014  ZZZ=            -11.3991  XYY=             23.7282
  XXY=            -12.5419  XXZ=             -4.9639  XZZ=             23.7282  YZZ=             -9.6005
  YYZ=             -3.7997  XYZ=             -0.0000
 Hexadecapole moment (field-independent basis, Debye-Ang**3):
 XXXX=           -405.8108 YYYY=            -48.6325 ZZZZ=            -16.3293 XXXY=             61.8370
 XXXZ=             24.4741 YYYX=             47.3343 YYYZ=             -7.5799 ZZZX=             18.7341
 ZZZY=             -7.5799 XXYY=            -65.3584 XXZZ=            -58.3250 YYZZ=            -10.8270
 XXYZ=             -3.3007 YYXZ=              6.2447 ZZXY=             15.7781
 N-N= 5.791353571404D+01 E-N=-5.592107485474D+02  KE= 1.872628949736D+02
  Exact polarizability:      22.021       0.000       7.657      -0.000       0.000       7.657
 Approx polarizability:      46.862      -0.000       9.884       0.000       0.000       9.884
   1 Symmetry operations used in ECPInt.
 ECPInt:  NShTT=      78 NPrTT=     615 LenC2=      78 LenP2D=     510.
 LDataN:  DoStor=T MaxTD1= 6 Len=  172
 Calling FoFJK, ICntrl=    100127 FMM=F ISym2X=0 I1Cent= 0 IOpClX= 0 NMat=1 NMatS=1 NMatT=0.
 Full mass-weighted force constant matrix:
 Low frequencies ---   -4.1375   -4.1375    0.0005    0.0006    0.0007  646.7246
 Low frequencies ---  646.7246 1370.6120 2436.0941
 Diagonal vibrational polarizability:
        2.4692997       1.9901743       1.9901743
 Harmonic frequencies (cm**-1), IR intensities (KM/Mole), Raman scattering
 activities (A**4/AMU), depolarization ratios for plane and unpolarized
 incident light, reduced masses (AMU), force constants (mDyne/A),
 and normal coordinates:
                      1                      2                      3
                      A                      A                      A
 Frequencies --    646.7246               646.7246              1370.6120
 Red. masses --     12.8774                12.8774                15.9949
 Frc consts  --      3.1733                 3.1733                17.7036
 IR Inten    --     30.9312                30.9312                 0.0000
  Atom  AN      X      Y      Z        X      Y      Z        X      Y      Z
     1   6     0.00   0.12   0.88    -0.00   0.88  -0.12    -0.00   0.00  -0.00
     2   8     0.00  -0.04  -0.33    -0.00  -0.33   0.04     0.71  -0.00   0.00
     3   8    -0.00  -0.04  -0.33     0.00  -0.33   0.04    -0.71  -0.00   0.00
                      4
                      A
 Frequencies --   2436.0941
 Red. masses --     12.8774
 Frc consts  --     45.0262
 IR Inten    --    544.5388
  Atom  AN      X      Y      Z
     1   6     0.88   0.00  -0.00
     2   8    -0.33   0.00  -0.00
     3   8    -0.33  -0.00   0.00

 -------------------
 - Thermochemistry -
 -------------------
 Temperature   298.150 Kelvin.  Pressure   1.00000 Atm.
 Atom     1 has atomic number  6 and mass  12.00000
 Atom     2 has atomic number  8 and mass  15.99491
 Atom     3 has atomic number  8 and mass  15.99491
 Molecular mass:    43.98983 amu.
 Principal axes and moments of inertia in atomic units:
                           1         2         3
     Eigenvalues --     0.00000 156.25973 156.25973
           X            1.00000   0.00000   0.00000
           Y           -0.00000  -0.00000   1.00000
           Z           -0.00000   1.00000   0.00000
 This molecule is a prolate symmetric top.
 Rotational symmetry number  2.
 Rotational temperature (Kelvin)      0.55429
 Rotational constant (GHZ):          11.549624
 Zero-point vibrational energy      30505.7 (Joules/Mol)
                                    7.29104 (Kcal/Mol)
 Vibrational temperatures:    930.49   930.49  1972.00  3505.00
          (Kelvin)
 
 Zero-point correction=                           0.011619 (Hartree/Particle)
 Thermal correction to Energy=                    0.014260
 Thermal correction to Enthalpy=                  0.015204
 Thermal correction to Gibbs Free Energy=        -0.009098
 Sum of electronic and zero-point Energies=           -188.567592
 Sum of electronic and thermal Energies=              -188.564951
 Sum of electronic and thermal Enthalpies=            -188.564007
 Sum of electronic and thermal Free Energies=         -188.588309
 
                     E (Thermal)             CV                S
                      KCal/Mol        Cal/Mol-Kelvin    Cal/Mol-Kelvin
 Total                    8.948              6.956             51.147
 Electronic               0.000              0.000              0.000
 Translational            0.889              2.981             37.270
 Rotational               0.592              1.987             13.105
 Vibrational              7.467              1.988              0.772
                       Q            Log10(Q)             Ln(Q)
 Total Bot       0.152952D+05          4.184556          9.635296
 Total V=0       0.338006D+10          9.528924         21.941159
 Vib (Bot)       0.495918D-05         -5.304590        -12.214271
 Vib (V=0)       0.109592D+01          0.039778          0.091592
 Electronic      0.100000D+01          0.000000          0.000000
 Translational   0.114679D+08          7.059482         16.255059
 Rotational      0.268945D+03          2.429664          5.594509
 -------------------------------------------------------------------
 Center     Atomic                   Forces (Hartrees/Bohr)
 Number     Number              X              Y              Z
 -------------------------------------------------------------------
      1        6          -0.000000008    0.000000000   -0.000000000
      2        8          -0.000020358   -0.000000000    0.000000000
      3        8           0.000020366   -0.000000000    0.000000000
 -------------------------------------------------------------------
 Cartesian Forces:  Max     0.000020366 RMS     0.000009599

 GradGradGradGradGradGradGradGradGradGradGradGradGradGradGradGradGradGrad
 Berny optimization.
 Search for a local minimum.
 Step number   1 out of a maximum of    2
 All quantities printed in internal units (Hartrees-Bohrs-Radians)
 Second derivative matrix not updated -- analytic derivatives used.
 The second derivative matrix:
                          X1        Y1        Z1        X2        Y2
           X1           1.95984
           Y1           0.00000   0.13812
           Z1          -0.00000  -0.00000   0.13812
           X2          -0.97992   0.00000  -0.00000   1.05851
           Y2           0.00000  -0.06906   0.00000  -0.00000   0.03453
           Z2          -0.00000   0.00000  -0.06906   0.00000  -0.00000
           X3          -0.97992  -0.00000   0.00000  -0.07860   0.00000
           Y3          -0.00000  -0.06906   0.00000  -0.00000   0.03454
           Z3           0.00000   0.00000  -0.06906   0.00000  -0.00000
                          Z2        X3        Y3        Z3
           Z2           0.03453
           X3           0.00000   1.05851
           Y3          -0.00000   0.00000   0.03453
           Z3           0.03454  -0.00000  -0.00000   0.03453
 ITU=  0
     Eigenvalues ---    0.20629   0.20629   1.13711   2.92697
 Angle between quadratic step and forces=   0.01 degrees.
 Linear search not attempted -- first point.
 B after Tr=     0.000000    0.000001   -0.000001
         Rot=    1.000000   -0.000001   -0.000000   -0.000000 Ang=  -0.00 deg.
 Variable       Old X    -DE/DX   Delta X   Delta X   Delta X     New X
                                 (Linear)    (Quad)   (Total)
    X1       -3.10571  -0.00000   0.00000  -0.00000  -0.00000  -3.10571
    Y1        1.25658   0.00000   0.00000   0.00000   0.00000   1.25658
    Z1        0.49733  -0.00000   0.00000  -0.00000  -0.00000   0.49733
    X2       -5.31584  -0.00002   0.00000  -0.00002  -0.00002  -5.31586
    Y2        1.25658  -0.00000   0.00000  -0.00000  -0.00000   1.25658
    Z2        0.49733   0.00000   0.00000   0.00000   0.00000   0.49733
    X3       -0.89558   0.00002   0.00000   0.00002   0.00002  -0.89557
    Y3        1.25658  -0.00000   0.00000  -0.00000  -0.00000   1.25658
    Z3        0.49733   0.00000   0.00000   0.00000   0.00000   0.49733
         Item               Value     Threshold  Converged?
 Maximum Force            0.000020     0.000450     YES
 RMS     Force            0.000010     0.000300     YES
 Maximum Displacement     0.000018     0.001800     YES
 RMS     Displacement     0.000008     0.001200     YES
 Predicted change in Energy=-3.646231D-10
 Optimization completed.
    -- Stationary point found.
 GradGradGradGradGradGradGradGradGradGradGradGradGradGradGradGradGradGrad


 ----------------------------------------------------------------------

 Electric dipole moment (input orientation):
 (Debye = 10**-18 statcoulomb cm , SI units = C m)
                  (au)            (Debye)         (10**-30 SI)
   Tot        0.000000D+00      0.000000D+00      0.000000D+00
   x          0.000000D+00      0.000000D+00      0.000000D+00
   y          0.000000D+00      0.000000D+00      0.000000D+00
   z          0.000000D+00      0.000000D+00      0.000000D+00

 Dipole polarizability, Alpha (input orientation).
 (esu units = cm**3 , SI units = C**2 m**2 J**-1)
 Alpha(0;0):
               (au)            (10**-24 esu)      (10**-40 SI)
   iso        0.124450D+02      0.184417D+01      0.205191D+01
   aniso      0.143633D+02      0.212842D+01      0.236819D+01
   xx         0.220206D+02      0.326311D+01      0.363070D+01
   yx         0.000000D+00      0.000000D+00      0.000000D+00
   yy         0.765728D+01      0.113469D+01      0.126251D+01
   zx         0.000000D+00      0.000000D+00      0.000000D+00
   zy         0.000000D+00      0.000000D+00      0.000000D+00
   zz         0.765728D+01      0.113469D+01      0.126251D+01

 ----------------------------------------------------------------------

 Dipole orientation:
     6          0.49594729          1.25706927          3.10573523
     8          0.49508431          1.25737157          5.31586382
     8          0.49681026          1.25676697          0.89560664

 Electric dipole moment (dipole orientation):
 (Debye = 10**-18 statcoulomb cm , SI units = C m)
                  (au)            (Debye)         (10**-30 SI)
   Tot        0.000000D+00      0.000000D+00      0.000000D+00
   x          0.000000D+00      0.000000D+00      0.000000D+00
   y          0.000000D+00      0.000000D+00      0.000000D+00
   z          0.000000D+00      0.000000D+00      0.000000D+00

 Dipole polarizability, Alpha (dipole orientation).
 (esu units = cm**3 , SI units = C**2 m**2 J**-1)
 Alpha(0;0):
               (au)            (10**-24 esu)      (10**-40 SI)
   iso        0.124450D+02      0.184417D+01      0.205191D+01
   aniso      0.143633D+02      0.212842D+01      0.236819D+01
   xx         0.765728D+01      0.113469D+01      0.126251D+01
   yx         0.000000D+00      0.000000D+00      0.000000D+00
   yy         0.765728D+01      0.113469D+01      0.126251D+01
   zx        -0.560833D-02     -0.831069D-03     -0.924689D-03
   zy         0.196459D-02      0.291122D-03      0.323917D-03
   zz         0.220206D+02      0.326311D+01      0.363070D+01

 ----------------------------------------------------------------------
 Unable to Open any file for archive entry.
 1\1\GINC-NODE4\Freq\RB3LYP\GenECP\C1O2\WEICHI\14-Nov-2020\0\\#N Geom=A
 llCheck Guess=TCheck SCRF=Check GenChk RB3LYP/GenECP Freq\\Title Card 
 Required\\0,1\C,-1.64347268,0.66495162,0.26317669\O,-2.8130224624,0.66
 495162,0.26317669\O,-0.4739228976,0.66495162,0.26317669\\Version=ES64L
 -G16RevC.01\HF=-188.5792112\RMSD=9.812e-10\RMSF=9.599e-06\ZeroPoint=0.
 011619\Thermal=0.01426\ETot=-188.5649513\HTot=-188.5640071\GTot=-188.5
 883087\Dipole=0.,0.,0.\DipoleDeriv=2.2077974,0.,0.,0.,0.5261907,0.,0.,
 0.,0.5261907,-1.1038987,0.,0.,0.,-0.2630953,0.,0.,0.,-0.2630953,-1.103
 8987,0.,0.,0.,-0.2630954,0.,0.,0.,-0.2630954\Polar=22.0205761,0.,7.657
 2775,0.,0.,7.6572775\Quadrupole=-2.1925523,1.0962762,1.0962762,0.,0.,0
 .\PG=D*H [O(C1),C*(O1.O1)]\NImag=0\\1.95983934,0.,0.13812461,0.,0.,0.1
 3812461,-0.97991966,0.,0.,1.05851475,0.,-0.06906230,0.,0.,0.03452597,0
 .,0.,-0.06906230,0.,0.,0.03452597,-0.97991967,0.,0.,-0.07859508,0.,0.,
 1.05851476,0.,-0.06906231,0.,0.,0.03453633,0.,0.,0.03452597,0.,0.,-0.0
 6906231,0.,0.,0.03453633,0.,0.,0.03452597\\0.,0.,0.,0.00002036,0.,0.,-
 0.00002037,0.,0.\\\@
 The archive entry for this job was punched.


 MAN IS A SINGULAR CREATURE.  HE HAS A SET OF GIFTS
 WHICH MAKE HIM UNIQUE AMONG THE ANIMALS: SO THAT, 
 UNLIKE THEM, HE IS NOT A FIGURE IN THE LANDSCAPE --
 HE IS A SHAPER OF THE LANDSCAPE.

                       -- JACOB BRONOWSKI
 Job cpu time:       0 days  0 hours  0 minutes 55.0 seconds.
 Elapsed time:       0 days  0 hours  0 minutes  2.6 seconds.
 File lengths (MBytes):  RWF=      6 Int=      0 D2E=      0 Chk=      2 Scr=      1
 Normal termination of Gaussian 16 at Sat Nov 14 11:26:53 2020.
