 Entering Gaussian System, Link 0=g16
 Initial command:
 /soft/g16/l1.exe "/tmp/Gau-53343.inp" -scrdir="/tmp/"
 Entering Link 1 = /soft/g16/l1.exe PID=     53344.
  
 Copyright (c) 1988-2019, Gaussian, Inc.  All Rights Reserved.
  
 This is part of the Gaussian(R) 16 program.  It is based on
 the Gaussian(R) 09 system (copyright 2009, Gaussian, Inc.),
 the Gaussian(R) 03 system (copyright 2003, Gaussian, Inc.),
 the Gaussian(R) 98 system (copyright 1998, Gaussian, Inc.),
 the Gaussian(R) 94 system (copyright 1995, Gaussian, Inc.),
 the Gaussian 92(TM) system (copyright 1992, Gaussian, Inc.),
 the Gaussian 90(TM) system (copyright 1990, Gaussian, Inc.),
 the Gaussian 88(TM) system (copyright 1988, Gaussian, Inc.),
 the Gaussian 86(TM) system (copyright 1986, Carnegie Mellon
 University), and the Gaussian 82(TM) system (copyright 1983,
 Carnegie Mellon University). Gaussian is a federally registered
 trademark of Gaussian, Inc.
  
 This software contains proprietary and confidential information,
 including trade secrets, belonging to Gaussian, Inc.
  
 This software is provided under written license and may be
 used, copied, transmitted, or stored only in accord with that
 written license.
  
 The following legend is applicable only to US Government
 contracts under FAR:
  
                    RESTRICTED RIGHTS LEGEND
  
 Use, reproduction and disclosure by the US Government is
 subject to restrictions as set forth in subparagraphs (a)
 and (c) of the Commercial Computer Software - Restricted
 Rights clause in FAR 52.227-19.
  
 Gaussian, Inc.
 340 Quinnipiac St., Bldg. 40, Wallingford CT 06492
  
  
 ---------------------------------------------------------------
 Warning -- This program may not be used in any manner that
 competes with the business of Gaussian, Inc. or will provide
 assistance to any competitor of Gaussian, Inc.  The licensee
 of this program is prohibited from giving any competitor of
 Gaussian, Inc. access to this program.  By using this program,
 the user acknowledges that Gaussian, Inc. is engaged in the
 business of creating and licensing software in the field of
 computational chemistry and represents and warrants to the
 licensee that it is not a competitor of Gaussian, Inc. and that
 it will not use this program in any manner prohibited above.
 ---------------------------------------------------------------
  

 Cite this work as:
 Gaussian 16, Revision C.01,
 M. J. Frisch, G. W. Trucks, H. B. Schlegel, G. E. Scuseria, 
 M. A. Robb, J. R. Cheeseman, G. Scalmani, V. Barone, 
 G. A. Petersson, H. Nakatsuji, X. Li, M. Caricato, A. V. Marenich, 
 J. Bloino, B. G. Janesko, R. Gomperts, B. Mennucci, H. P. Hratchian, 
 J. V. Ortiz, A. F. Izmaylov, J. L. Sonnenberg, D. Williams-Young, 
 F. Ding, F. Lipparini, F. Egidi, J. Goings, B. Peng, A. Petrone, 
 T. Henderson, D. Ranasinghe, V. G. Zakrzewski, J. Gao, N. Rega, 
 G. Zheng, W. Liang, M. Hada, M. Ehara, K. Toyota, R. Fukuda, 
 J. Hasegawa, M. Ishida, T. Nakajima, Y. Honda, O. Kitao, H. Nakai, 
 T. Vreven, K. Throssell, J. A. Montgomery, Jr., J. E. Peralta, 
 F. Ogliaro, M. J. Bearpark, J. J. Heyd, E. N. Brothers, K. N. Kudin, 
 V. N. Staroverov, T. A. Keith, R. Kobayashi, J. Normand, 
 K. Raghavachari, A. P. Rendell, J. C. Burant, S. S. Iyengar, 
 J. Tomasi, M. Cossi, J. M. Millam, M. Klene, C. Adamo, R. Cammi, 
 J. W. Ochterski, R. L. Martin, K. Morokuma, O. Farkas, 
 J. B. Foresman, and D. J. Fox, Gaussian, Inc., Wallingford CT, 2019.
 
 ******************************************
 Gaussian 16:  ES64L-G16RevC.01  3-Jul-2019
                 1-Jun-2023 
 ******************************************
 %nprocshared=26
 Will use up to   26 processors via shared memory.
 %mem=40GB
 %chk=N2_333K.chk
 --------------------------------------------------------------------
 # opt freq b3lyp/genecp empiricaldispersion=gd3bj Temperature=333.15
 --------------------------------------------------------------------
 1/18=20,19=15,26=3,38=1,112=333150/1,3;
 2/9=110,12=2,17=6,18=5,40=1/2;
 3/5=7,11=2,16=1,17=8,25=1,30=1,71=1,74=-5,124=41/1,2,3;
 4//1;
 5/5=2,38=5/2;
 6/7=2,8=2,9=2,10=2,28=1/1;
 7//1,2,3,16;
 1/18=20,19=15,26=3/3(2);
 2/9=110/2;
 99//99;
 2/9=110/2;
 3/5=7,6=1,11=2,16=1,17=8,25=1,30=1,71=1,74=-5,82=7,124=41/1,2,3;
 4/5=5,16=3,69=1/1;
 5/5=2,38=5/2;
 7//1,2,3,16;
 1/18=20,19=15,26=3/3(-5);
 2/9=110/2;
 6/7=2,8=2,9=2,10=2,19=2,28=1/1;
 99/9=1/99;
 -------------------
 Title Card Required
 -------------------
 Symbolic Z-matrix:
 Charge =  0 Multiplicity = 1
 N                    -0.52482  -0.45      0.01374 
 N                    -1.61682  -0.45      0.01374 
 

 GradGradGradGradGradGradGradGradGradGradGradGradGradGradGradGradGradGrad
 Berny optimization.
 Initialization pass.
                           ----------------------------
                           !    Initial Parameters    !
                           ! (Angstroms and Degrees)  !
 --------------------------                            --------------------------
 ! Name  Definition              Value          Derivative Info.                !
 --------------------------------------------------------------------------------
 ! R1    R(1,2)                  1.092          estimate D2E/DX2                !
 --------------------------------------------------------------------------------
 Trust Radius=3.00D-01 FncErr=1.00D-07 GrdErr=1.00D-06 EigMax=2.50D+02 EigMin=1.00D-04
 Number of steps in this run=     20 maximum allowed number of steps=    100.
 GradGradGradGradGradGradGradGradGradGradGradGradGradGradGradGradGradGrad

                          Input orientation:                          
 ---------------------------------------------------------------------
 Center     Atomic      Atomic             Coordinates (Angstroms)
 Number     Number       Type             X           Y           Z
 ---------------------------------------------------------------------
      1          7           0       -0.524820   -0.450000    0.013743
      2          7           0       -1.616820   -0.450000    0.013743
 ---------------------------------------------------------------------
 Stoichiometry    N2
 Framework group  D*H[C*(N.N)]
 Deg. of freedom     1
 Full point group                 D*H     NOp   8
 Largest Abelian subgroup         D2H     NOp   8
 Largest concise Abelian subgroup C2      NOp   2
                         Standard orientation:                         
 ---------------------------------------------------------------------
 Center     Atomic      Atomic             Coordinates (Angstroms)
 Number     Number       Type             X           Y           Z
 ---------------------------------------------------------------------
      1          7           0        0.000000    0.000000    0.546000
      2          7           0        0.000000    0.000000   -0.546000
 ---------------------------------------------------------------------
 Rotational constants (GHZ):           0.0000000          60.5310956          60.5310956
 General basis read from cards:  (5D, 7F)
 ======================================================================================================
                                       Pseudopotential Parameters
 ======================================================================================================
  Center     Atomic      Valence      Angular      Power
  Number     Number     Electrons     Momentum     of R      Exponent        Coefficient   SO-Coeffient
 ======================================================================================================
    1          7
                                   No pseudopotential on this center.
    2          7
                                   No pseudopotential on this center.
 ======================================================================================================
 There are     8 symmetry adapted cartesian basis functions of AG  symmetry.
 There are     1 symmetry adapted cartesian basis functions of B1G symmetry.
 There are     3 symmetry adapted cartesian basis functions of B2G symmetry.
 There are     3 symmetry adapted cartesian basis functions of B3G symmetry.
 There are     1 symmetry adapted cartesian basis functions of AU  symmetry.
 There are     8 symmetry adapted cartesian basis functions of B1U symmetry.
 There are     3 symmetry adapted cartesian basis functions of B2U symmetry.
 There are     3 symmetry adapted cartesian basis functions of B3U symmetry.
 There are     7 symmetry adapted basis functions of AG  symmetry.
 There are     1 symmetry adapted basis functions of B1G symmetry.
 There are     3 symmetry adapted basis functions of B2G symmetry.
 There are     3 symmetry adapted basis functions of B3G symmetry.
 There are     1 symmetry adapted basis functions of AU  symmetry.
 There are     7 symmetry adapted basis functions of B1U symmetry.
 There are     3 symmetry adapted basis functions of B2U symmetry.
 There are     3 symmetry adapted basis functions of B3U symmetry.
    28 basis functions,    56 primitive gaussians,    30 cartesian basis functions
     7 alpha electrons        7 beta electrons
       nuclear repulsion energy        23.7451312592 Hartrees.
 NAtoms=    2 NActive=    2 NUniq=    1 SFac= 4.00D+00 NAtFMM=   60 NAOKFM=F Big=F
 Integral buffers will be    131072 words long.
 Raffenetti 2 integral format.
 Two-electron integral symmetry is turned on.
 Nuclear repulsion after empirical dispersion term =       23.7443786742 Hartrees.
 One-electron integrals computed using PRISM.
   8 Symmetry operations used in ECPInt.
 ECPInt:  NShTT=      36 NPrTT=     289 LenC2=      37 LenP2D=     269.
 LDataN:  DoStor=T MaxTD1= 4 Len=   56
 NBasis=    28 RedAO= T EigKep=  5.31D-03  NBF=     7     1     3     3     1     7     3     3
 NBsUse=    28 1.00D-06 EigRej= -1.00D+00 NBFU=     7     1     3     3     1     7     3     3
 ExpMin= 2.12D-01 ExpMax= 4.17D+03 ExpMxC= 6.27D+02 IAcc=3 IRadAn=         5 AccDes= 0.00D+00
 Harris functional with IExCor=  402 and IRadAn=       5 diagonalized for initial guess.
 HarFok:  IExCor=  402 AccDes= 0.00D+00 IRadAn=         5 IDoV= 1 UseB2=F ITyADJ=14
 ICtDFT=  3500011 ScaDFX=  1.000000  1.000000  1.000000  1.000000
 FoFCou: FMM=F IPFlag=           0 FMFlag=      100000 FMFlg1=           0
         NFxFlg=           0 DoJE=T BraDBF=F KetDBF=T FulRan=T
         wScrn=  0.000000 ICntrl=       500 IOpCl=  0 I1Cent=   200000004 NGrid=           0
         NMat0=    1 NMatS0=      1 NMatT0=    0 NMatD0=    1 NMtDS0=    0 NMtDT0=    0
 Petite list used in FoFCou.
 Initial guess orbital symmetries:
       Occupied  (SGG) (SGU) (SGG) (SGU) (PIU) (PIU) (SGG)
       Virtual   (PIG) (PIG) (SGU) (SGG) (PIU) (PIU) (SGG) (PIG)
                 (PIG) (SGU) (SGU) (DLTG) (DLTG) (PIU) (PIU) (DLTU)
                 (DLTU) (SGG) (PIG) (PIG) (SGU)
 The electronic state of the initial guess is 1-SGG.
 Keep R1 ints in memory in symmetry-blocked form, NReq=22538857.
 Requested convergence on RMS density matrix=1.00D-08 within 128 cycles.
 Requested convergence on MAX density matrix=1.00D-06.
 Requested convergence on             energy=1.00D-06.
 No special actions if energy rises.
 Integral accuracy reduced to 1.0D-05 until final iterations.
 Initial convergence to 1.0D-05 achieved.  Increase integral accuracy.
 SCF Done:  E(RB3LYP) =  -109.520948480     A.U. after    8 cycles
            NFock=  8  Conv=0.50D-08     -V/T= 2.0067

 **********************************************************************

            Population analysis using the SCF Density.

 **********************************************************************

 Orbital symmetries:
       Occupied  (SGG) (SGU) (SGG) (SGU) (PIU) (PIU) (SGG)
       Virtual   (PIG) (PIG) (SGU) (SGG) (PIU) (PIU) (SGG) (PIG)
                 (PIG) (SGU) (SGU) (DLTG) (DLTG) (PIU) (PIU) (DLTU)
                 (DLTU) (SGG) (PIG) (PIG) (SGU)
 The electronic state is 1-SGG.
 Alpha  occ. eigenvalues --  -14.43885 -14.43725  -1.13101  -0.54797  -0.46578
 Alpha  occ. eigenvalues --   -0.46578  -0.42591
 Alpha virt. eigenvalues --   -0.01659  -0.01659   0.42132   0.59577   0.60412
 Alpha virt. eigenvalues --    0.60412   0.72506   0.75454   0.75454   0.83015
 Alpha virt. eigenvalues --    1.29495   1.44653   1.44653   1.56128   1.56128
 Alpha virt. eigenvalues --    1.94839   1.94839   2.48845   2.60847   2.60847
 Alpha virt. eigenvalues --    2.85365
          Condensed to atoms (all electrons):
               1          2
     1  N    6.358491   0.641509
     2  N    0.641509   6.358491
 Mulliken charges:
               1
     1  N   -0.000000
     2  N    0.000000
 Sum of Mulliken charges =  -0.00000
 Mulliken charges with hydrogens summed into heavy atoms:
               1
     1  N   -0.000000
     2  N    0.000000
 Electronic spatial extent (au):  <R**2>=             38.3396
 Charge=              0.0000 electrons
 Dipole moment (field-independent basis, Debye):
    X=              0.0000    Y=             -0.0000    Z=              0.0000  Tot=              0.0000
 Quadrupole moment (field-independent basis, Debye-Ang):
   XX=             -9.9631   YY=             -9.9631   ZZ=            -11.5950
   XY=              0.0000   XZ=              0.0000   YZ=             -0.0000
 Traceless Quadrupole moment (field-independent basis, Debye-Ang):
   XX=              0.5440   YY=              0.5440   ZZ=             -1.0879
   XY=              0.0000   XZ=              0.0000   YZ=             -0.0000
 Octapole moment (field-independent basis, Debye-Ang**2):
  XXX=             -0.0000  YYY=              0.0000  ZZZ=              0.0000  XYY=             -0.0000
  XXY=             -0.0000  XXZ=              0.0000  XZZ=             -0.0000  YZZ=              0.0000
  YYZ=              0.0000  XYZ=             -0.0000
 Hexadecapole moment (field-independent basis, Debye-Ang**3):
 XXXX=             -7.8498 YYYY=             -7.8498 ZZZZ=            -29.9891 XXXY=              0.0000
 XXXZ=              0.0000 YYYX=              0.0000 YYYZ=             -0.0000 ZZZX=              0.0000
 ZZZY=             -0.0000 XXYY=             -2.6166 XXZZ=             -5.9247 YYZZ=             -5.9247
 XXYZ=             -0.0000 YYXZ=              0.0000 ZZXY=              0.0000
 N-N= 2.374437867421D+01 E-N=-3.035264369794D+02  KE= 1.087950705378D+02
 Symmetry AG   KE= 5.325641398155D+01
 Symmetry B1G  KE= 1.436962024012D-34
 Symmetry B2G  KE= 1.316660800121D-32
 Symmetry B3G  KE= 1.316660800121D-32
 Symmetry AU   KE= 4.725212812430D-34
 Symmetry B1U  KE= 4.872209101358D+01
 Symmetry B2U  KE= 3.408282771340D+00
 Symmetry B3U  KE= 3.408282771340D+00
   8 Symmetry operations used in ECPInt.
 ECPInt:  NShTT=      36 NPrTT=     289 LenC2=      37 LenP2D=     269.
 LDataN:  DoStor=T MaxTD1= 5 Len=  102
 Calling FoFJK, ICntrl=      2127 FMM=F ISym2X=1 I1Cent= 0 IOpClX= 0 NMat=1 NMatS=1 NMatT=0.
 ***** Axes restored to original set *****
 -------------------------------------------------------------------
 Center     Atomic                   Forces (Hartrees/Bohr)
 Number     Number              X              Y              Z
 -------------------------------------------------------------------
      1        7           0.042197565    0.000000000   -0.000000000
      2        7          -0.042197565   -0.000000000    0.000000000
 -------------------------------------------------------------------
 Cartesian Forces:  Max     0.042197565 RMS     0.024362776

 GradGradGradGradGradGradGradGradGradGradGradGradGradGradGradGradGradGrad
 Berny optimization.
 FormGI is forming the generalized inverse of G from B-inverse, IUseBI=4.
 Internal  Forces:  Max     0.042197565 RMS     0.042197565
 Search for a local minimum.
 Step number   1 out of a maximum of   20
 All quantities printed in internal units (Hartrees-Bohrs-Radians)
 Mixed Optimization -- RFO/linear search
 Second derivative matrix not updated -- first step.
 The second derivative matrix:
                          R1
           R1           1.85037
 ITU=  0
     Eigenvalues ---    1.85037
 RFO step:  Lambda=-9.61812127D-04 EMin= 1.85037116D+00
 Linear search not attempted -- first point.
 Iteration  1 RMS(Cart)=  0.01611714 RMS(Int)=  0.00000000
 Iteration  2 RMS(Cart)=  0.00000000 RMS(Int)=  0.00000000
 ClnCor:  largest displacement from symmetrization is 4.44D-16 for atom     2.
 Variable       Old X    -DE/DX   Delta X   Delta X   Delta X     New X
                                 (Linear)    (Quad)   (Total)
    R1        2.06358   0.04220   0.00000   0.02279   0.02279   2.08637
         Item               Value     Threshold  Converged?
 Maximum Force            0.042198     0.000450     NO 
 RMS     Force            0.042198     0.000300     NO 
 Maximum Displacement     0.011397     0.001800     NO 
 RMS     Displacement     0.016117     0.001200     NO 
 Predicted change in Energy=-4.811559D-04
 GradGradGradGradGradGradGradGradGradGradGradGradGradGradGradGradGradGrad

                          Input orientation:                          
 ---------------------------------------------------------------------
 Center     Atomic      Atomic             Coordinates (Angstroms)
 Number     Number       Type             X           Y           Z
 ---------------------------------------------------------------------
      1          7           0       -0.518789   -0.450000    0.013743
      2          7           0       -1.622851   -0.450000    0.013743
 ---------------------------------------------------------------------
 Stoichiometry    N2
 Framework group  D*H[C*(N.N)]
 Deg. of freedom     1
 Full point group                 D*H     NOp   8
 Largest Abelian subgroup         D2H     NOp   8
 Largest concise Abelian subgroup C2      NOp   2
                         Standard orientation:                         
 ---------------------------------------------------------------------
 Center     Atomic      Atomic             Coordinates (Angstroms)
 Number     Number       Type             X           Y           Z
 ---------------------------------------------------------------------
      1          7           0        0.000000    0.000000    0.552031
      2          7           0        0.000000    0.000000   -0.552031
 ---------------------------------------------------------------------
 Rotational constants (GHZ):           0.0000000          59.2157482          59.2157482
 Basis read from rwf:  (5D, 7F)
 Pseudo-potential data read from rwf file.
 There are     8 symmetry adapted cartesian basis functions of AG  symmetry.
 There are     1 symmetry adapted cartesian basis functions of B1G symmetry.
 There are     3 symmetry adapted cartesian basis functions of B2G symmetry.
 There are     3 symmetry adapted cartesian basis functions of B3G symmetry.
 There are     1 symmetry adapted cartesian basis functions of AU  symmetry.
 There are     8 symmetry adapted cartesian basis functions of B1U symmetry.
 There are     3 symmetry adapted cartesian basis functions of B2U symmetry.
 There are     3 symmetry adapted cartesian basis functions of B3U symmetry.
 There are     7 symmetry adapted basis functions of AG  symmetry.
 There are     1 symmetry adapted basis functions of B1G symmetry.
 There are     3 symmetry adapted basis functions of B2G symmetry.
 There are     3 symmetry adapted basis functions of B3G symmetry.
 There are     1 symmetry adapted basis functions of AU  symmetry.
 There are     7 symmetry adapted basis functions of B1U symmetry.
 There are     3 symmetry adapted basis functions of B2U symmetry.
 There are     3 symmetry adapted basis functions of B3U symmetry.
    28 basis functions,    56 primitive gaussians,    30 cartesian basis functions
     7 alpha electrons        7 beta electrons
       nuclear repulsion energy        23.4857221222 Hartrees.
 NAtoms=    2 NActive=    2 NUniq=    1 SFac= 4.00D+00 NAtFMM=   60 NAOKFM=F Big=F
 Integral buffers will be    131072 words long.
 Raffenetti 2 integral format.
 Two-electron integral symmetry is turned on.
 Nuclear repulsion after empirical dispersion term =       23.4849695722 Hartrees.
 One-electron integrals computed using PRISM.
   8 Symmetry operations used in ECPInt.
 ECPInt:  NShTT=      36 NPrTT=     289 LenC2=      37 LenP2D=     267.
 LDataN:  DoStor=T MaxTD1= 4 Len=   56
 NBasis=    28 RedAO= T EigKep=  5.58D-03  NBF=     7     1     3     3     1     7     3     3
 NBsUse=    28 1.00D-06 EigRej= -1.00D+00 NBFU=     7     1     3     3     1     7     3     3
 Initial guess from the checkpoint file:  "N2_333K.chk"
 B after Tr=     0.000000    0.000000    0.000000
         Rot=    1.000000    0.000000    0.000000    0.000000 Ang=   0.00 deg.
 Initial guess orbital symmetries:
       Occupied  (SGG) (SGU) (SGG) (SGU) (PIU) (PIU) (SGG)
       Virtual   (PIG) (PIG) (SGU) (SGG) (PIU) (PIU) (SGG) (PIG)
                 (PIG) (SGU) (SGU) (DLTG) (DLTG) (PIU) (PIU) (DLTU)
                 (DLTU) (SGG) (PIG) (PIG) (SGU)
 Keep R1 ints in memory in symmetry-blocked form, NReq=22538857.
 Requested convergence on RMS density matrix=1.00D-08 within 128 cycles.
 Requested convergence on MAX density matrix=1.00D-06.
 Requested convergence on             energy=1.00D-06.
 No special actions if energy rises.
 SCF Done:  E(RB3LYP) =  -109.521466033     A.U. after    6 cycles
            NFock=  6  Conv=0.33D-08     -V/T= 2.0073
   8 Symmetry operations used in ECPInt.
 ECPInt:  NShTT=      36 NPrTT=     289 LenC2=      37 LenP2D=     267.
 LDataN:  DoStor=T MaxTD1= 5 Len=  102
 Calling FoFJK, ICntrl=      2127 FMM=F ISym2X=1 I1Cent= 0 IOpClX= 0 NMat=1 NMatS=1 NMatT=0.
 ***** Axes restored to original set *****
 -------------------------------------------------------------------
 Center     Atomic                   Forces (Hartrees/Bohr)
 Number     Number              X              Y              Z
 -------------------------------------------------------------------
      1        7           0.003764048   -0.000000000   -0.000000000
      2        7          -0.003764048    0.000000000    0.000000000
 -------------------------------------------------------------------
 Cartesian Forces:  Max     0.003764048 RMS     0.002173174

 GradGradGradGradGradGradGradGradGradGradGradGradGradGradGradGradGradGrad
 Berny optimization.
 Using GEDIIS/GDIIS optimizer.
 Internal  Forces:  Max     0.003764048 RMS     0.003764048
 Search for a local minimum.
 Step number   2 out of a maximum of   20
 All quantities printed in internal units (Hartrees-Bohrs-Radians)
 Mixed Optimization -- RFO/linear search
 Update second derivatives using D2CorX and points    1    2
 DE= -5.18D-04 DEPred=-4.81D-04 R= 1.08D+00
 TightC=F SS=  1.41D+00  RLast= 2.28D-02 DXNew= 5.0454D-01 6.8379D-02
 Trust test= 1.08D+00 RLast= 2.28D-02 DXMaxT set to 3.00D-01
 The second derivative matrix:
                          R1
           R1           1.68619
 ITU=  1  0
 Use linear search instead of GDIIS.
     Eigenvalues ---    1.68619
 RFO step:  Lambda= 0.00000000D+00 EMin= 1.68619297D+00
 Quartic linear search produced a step of  0.10274.
 Iteration  1 RMS(Cart)=  0.00165595 RMS(Int)=  0.00000000
 Iteration  2 RMS(Cart)=  0.00000000 RMS(Int)=  0.00000000
 ClnCor:  largest displacement from symmetrization is 4.44D-16 for atom     2.
 Variable       Old X    -DE/DX   Delta X   Delta X   Delta X     New X
                                 (Linear)    (Quad)   (Total)
    R1        2.08637   0.00376   0.00234   0.00000   0.00234   2.08872
         Item               Value     Threshold  Converged?
 Maximum Force            0.003764     0.000450     NO 
 RMS     Force            0.003764     0.000300     NO 
 Maximum Displacement     0.001171     0.001800     YES
 RMS     Displacement     0.001656     0.001200     NO 
 Predicted change in Energy=-4.191072D-06
 GradGradGradGradGradGradGradGradGradGradGradGradGradGradGradGradGradGrad

                          Input orientation:                          
 ---------------------------------------------------------------------
 Center     Atomic      Atomic             Coordinates (Angstroms)
 Number     Number       Type             X           Y           Z
 ---------------------------------------------------------------------
      1          7           0       -0.518170   -0.450000    0.013743
      2          7           0       -1.623471   -0.450000    0.013743
 ---------------------------------------------------------------------
 Stoichiometry    N2
 Framework group  D*H[C*(N.N)]
 Deg. of freedom     1
 Full point group                 D*H     NOp   8
 Largest Abelian subgroup         D2H     NOp   8
 Largest concise Abelian subgroup C2      NOp   2
                         Standard orientation:                         
 ---------------------------------------------------------------------
 Center     Atomic      Atomic             Coordinates (Angstroms)
 Number     Number       Type             X           Y           Z
 ---------------------------------------------------------------------
      1          7           0        0.000000    0.000000    0.552650
      2          7           0        0.000000    0.000000   -0.552650
 ---------------------------------------------------------------------
 Rotational constants (GHZ):           0.0000000          59.0830376          59.0830376
 Basis read from rwf:  (5D, 7F)
 Pseudo-potential data read from rwf file.
 There are     8 symmetry adapted cartesian basis functions of AG  symmetry.
 There are     1 symmetry adapted cartesian basis functions of B1G symmetry.
 There are     3 symmetry adapted cartesian basis functions of B2G symmetry.
 There are     3 symmetry adapted cartesian basis functions of B3G symmetry.
 There are     1 symmetry adapted cartesian basis functions of AU  symmetry.
 There are     8 symmetry adapted cartesian basis functions of B1U symmetry.
 There are     3 symmetry adapted cartesian basis functions of B2U symmetry.
 There are     3 symmetry adapted cartesian basis functions of B3U symmetry.
 There are     7 symmetry adapted basis functions of AG  symmetry.
 There are     1 symmetry adapted basis functions of B1G symmetry.
 There are     3 symmetry adapted basis functions of B2G symmetry.
 There are     3 symmetry adapted basis functions of B3G symmetry.
 There are     1 symmetry adapted basis functions of AU  symmetry.
 There are     7 symmetry adapted basis functions of B1U symmetry.
 There are     3 symmetry adapted basis functions of B2U symmetry.
 There are     3 symmetry adapted basis functions of B3U symmetry.
    28 basis functions,    56 primitive gaussians,    30 cartesian basis functions
     7 alpha electrons        7 beta electrons
       nuclear repulsion energy        23.4593899966 Hartrees.
 NAtoms=    2 NActive=    2 NUniq=    1 SFac= 4.00D+00 NAtFMM=   60 NAOKFM=F Big=F
 Integral buffers will be    131072 words long.
 Raffenetti 2 integral format.
 Two-electron integral symmetry is turned on.
 Nuclear repulsion after empirical dispersion term =       23.4586374503 Hartrees.
 One-electron integrals computed using PRISM.
   8 Symmetry operations used in ECPInt.
 ECPInt:  NShTT=      36 NPrTT=     289 LenC2=      37 LenP2D=     267.
 LDataN:  DoStor=T MaxTD1= 4 Len=   56
 NBasis=    28 RedAO= T EigKep=  5.61D-03  NBF=     7     1     3     3     1     7     3     3
 NBsUse=    28 1.00D-06 EigRej= -1.00D+00 NBFU=     7     1     3     3     1     7     3     3
 Initial guess from the checkpoint file:  "N2_333K.chk"
 B after Tr=    -0.000000    0.000000   -0.000000
         Rot=    1.000000    0.000000    0.000000    0.000000 Ang=   0.00 deg.
 Initial guess orbital symmetries:
       Occupied  (SGG) (SGU) (SGG) (SGU) (PIU) (PIU) (SGG)
       Virtual   (PIG) (PIG) (SGU) (SGG) (PIU) (PIU) (SGG) (PIG)
                 (PIG) (SGU) (SGU) (DLTG) (DLTG) (PIU) (PIU) (DLTU)
                 (DLTU) (SGG) (PIG) (PIG) (SGU)
 Keep R1 ints in memory in symmetry-blocked form, NReq=22538857.
 Requested convergence on RMS density matrix=1.00D-08 within 128 cycles.
 Requested convergence on MAX density matrix=1.00D-06.
 Requested convergence on             energy=1.00D-06.
 No special actions if energy rises.
 SCF Done:  E(RB3LYP) =  -109.521470433     A.U. after    6 cycles
            NFock=  6  Conv=0.34D-09     -V/T= 2.0074
   8 Symmetry operations used in ECPInt.
 ECPInt:  NShTT=      36 NPrTT=     289 LenC2=      37 LenP2D=     267.
 LDataN:  DoStor=T MaxTD1= 5 Len=  102
 Calling FoFJK, ICntrl=      2127 FMM=F ISym2X=1 I1Cent= 0 IOpClX= 0 NMat=1 NMatS=1 NMatT=0.
 ***** Axes restored to original set *****
 -------------------------------------------------------------------
 Center     Atomic                   Forces (Hartrees/Bohr)
 Number     Number              X              Y              Z
 -------------------------------------------------------------------
      1        7          -0.000001008   -0.000000000   -0.000000000
      2        7           0.000001008    0.000000000    0.000000000
 -------------------------------------------------------------------
 Cartesian Forces:  Max     0.000001008 RMS     0.000000582

 GradGradGradGradGradGradGradGradGradGradGradGradGradGradGradGradGradGrad
 Berny optimization.
 Using GEDIIS/GDIIS optimizer.
 Internal  Forces:  Max     0.000001008 RMS     0.000001008
 Search for a local minimum.
 Step number   3 out of a maximum of   20
 All quantities printed in internal units (Hartrees-Bohrs-Radians)
 Mixed Optimization -- En-DIIS/RFO-DIIS
 Update second derivatives using D2CorX and points    2    3
 DE= -4.40D-06 DEPred=-4.19D-06 R= 1.05D+00
 TightC=F SS=  1.41D+00  RLast= 2.34D-03 DXNew= 5.0454D-01 7.0256D-03
 Trust test= 1.05D+00 RLast= 2.34D-03 DXMaxT set to 3.00D-01
 The second derivative matrix:
                          R1
           R1           1.60772
 ITU=  1  1
 Use linear search instead of GDIIS.
     Eigenvalues ---    1.60772
 RFO step:  Lambda= 0.00000000D+00 EMin= 1.60771880D+00
 Quartic linear search produced a step of -0.00027.
 Iteration  1 RMS(Cart)=  0.00000045 RMS(Int)=  0.00000000
 ClnCor:  largest displacement from symmetrization is 0.00D+00 for atom     0.
 Variable       Old X    -DE/DX   Delta X   Delta X   Delta X     New X
                                 (Linear)    (Quad)   (Total)
    R1        2.08872  -0.00000  -0.00000  -0.00000  -0.00000   2.08872
         Item               Value     Threshold  Converged?
 Maximum Force            0.000001     0.000450     YES
 RMS     Force            0.000001     0.000300     YES
 Maximum Displacement     0.000000     0.001800     YES
 RMS     Displacement     0.000000     0.001200     YES
 Predicted change in Energy=-3.161349D-13
 Optimization completed.
    -- Stationary point found.
                           ----------------------------
                           !   Optimized Parameters   !
                           ! (Angstroms and Degrees)  !
 --------------------------                            --------------------------
 ! Name  Definition              Value          Derivative Info.                !
 --------------------------------------------------------------------------------
 ! R1    R(1,2)                  1.1053         -DE/DX =    0.0                 !
 --------------------------------------------------------------------------------
 GradGradGradGradGradGradGradGradGradGradGradGradGradGradGradGradGradGrad

                          Input orientation:                          
 ---------------------------------------------------------------------
 Center     Atomic      Atomic             Coordinates (Angstroms)
 Number     Number       Type             X           Y           Z
 ---------------------------------------------------------------------
      1          7           0       -0.518170   -0.450000    0.013743
      2          7           0       -1.623471   -0.450000    0.013743
 ---------------------------------------------------------------------
 Stoichiometry    N2
 Framework group  D*H[C*(N.N)]
 Deg. of freedom     1
 Full point group                 D*H     NOp   8
 Largest Abelian subgroup         D2H     NOp   8
 Largest concise Abelian subgroup C2      NOp   2
                         Standard orientation:                         
 ---------------------------------------------------------------------
 Center     Atomic      Atomic             Coordinates (Angstroms)
 Number     Number       Type             X           Y           Z
 ---------------------------------------------------------------------
      1          7           0        0.000000    0.000000    0.552650
      2          7           0        0.000000    0.000000   -0.552650
 ---------------------------------------------------------------------
 Rotational constants (GHZ):           0.0000000          59.0830376          59.0830376

 **********************************************************************

            Population analysis using the SCF Density.

 **********************************************************************

 Orbital symmetries:
       Occupied  (SGG) (SGU) (SGG) (SGU) (PIU) (PIU) (SGG)
       Virtual   (PIG) (PIG) (SGU) (SGG) (PIU) (PIU) (SGG) (PIG)
                 (PIG) (SGU) (SGU) (DLTG) (DLTG) (PIU) (PIU) (DLTU)
                 (DLTU) (SGG) (PIG) (PIG) (SGU)
 The electronic state is 1-SGG.
 Alpha  occ. eigenvalues --  -14.44199 -14.44058  -1.12308  -0.55162  -0.46158
 Alpha  occ. eigenvalues --   -0.46158  -0.42542
 Alpha virt. eigenvalues --   -0.02298  -0.02298   0.41558   0.59954   0.60672
 Alpha virt. eigenvalues --    0.60672   0.72404   0.75221   0.75221   0.81181
 Alpha virt. eigenvalues --    1.28336   1.45075   1.45075   1.54935   1.54935
 Alpha virt. eigenvalues --    1.94007   1.94007   2.47451   2.59508   2.59508
 Alpha virt. eigenvalues --    2.82684
          Condensed to atoms (all electrons):
               1          2
     1  N    6.371141   0.628859
     2  N    0.628859   6.371141
 Mulliken charges:
               1
     1  N    0.000000
     2  N    0.000000
 Sum of Mulliken charges =   0.00000
 Mulliken charges with hydrogens summed into heavy atoms:
               1
     1  N    0.000000
     2  N    0.000000
 Electronic spatial extent (au):  <R**2>=             38.7732
 Charge=             -0.0000 electrons
 Dipole moment (field-independent basis, Debye):
    X=              0.0000    Y=              0.0000    Z=              0.0000  Tot=              0.0000
 Quadrupole moment (field-independent basis, Debye-Ang):
   XX=            -10.0031   YY=            -10.0031   ZZ=            -11.6069
   XY=              0.0000   XZ=              0.0000   YZ=             -0.0000
 Traceless Quadrupole moment (field-independent basis, Debye-Ang):
   XX=              0.5346   YY=              0.5346   ZZ=             -1.0692
   XY=              0.0000   XZ=              0.0000   YZ=             -0.0000
 Octapole moment (field-independent basis, Debye-Ang**2):
  XXX=             -0.0000  YYY=              0.0000  ZZZ=              0.0000  XYY=             -0.0000
  XXY=             -0.0000  XXZ=              0.0000  XZZ=             -0.0000  YZZ=              0.0000
  YYZ=              0.0000  XYZ=             -0.0000
 Hexadecapole moment (field-independent basis, Debye-Ang**3):
 XXXX=             -7.9119 YYYY=             -7.9119 ZZZZ=            -30.4893 XXXY=              0.0000
 XXXZ=              0.0000 YYYX=              0.0000 YYYZ=             -0.0000 ZZZX=              0.0000
 ZZZY=             -0.0000 XXYY=             -2.6373 XXZZ=             -6.0151 YYZZ=             -6.0151
 XXYZ=             -0.0000 YYXZ=              0.0000 ZZXY=              0.0000
 N-N= 2.345863745030D+01 E-N=-3.028997285829D+02  KE= 1.087162983418D+02
 Symmetry AG   KE= 5.319532607352D+01
 Symmetry B1G  KE= 1.383615541737D-34
 Symmetry B2G  KE= 5.347519889767D-33
 Symmetry B3G  KE= 5.347519889767D-33
 Symmetry AU   KE= 4.509131967210D-34
 Symmetry B1U  KE= 4.873117162487D+01
 Symmetry B2U  KE= 3.394900321702D+00
 Symmetry B3U  KE= 3.394900321702D+00
 Unable to Open any file for archive entry.
 1\1\GINC-NODE10\FOpt\RB3LYP\GenECP\N2\WEICHI\01-Jun-2023\0\\# opt freq
  b3lyp/genecp empiricaldispersion=gd3bj Temperature=333.15\\Title Card
  Required\\0,1\N,-0.5181697729,-0.44999999,0.01374284\N,-1.6234706071,
 -0.44999999,0.01374284\\Version=ES64L-G16RevC.01\State=1-SGG\HF=-109.5
 214704\RMSD=3.353e-10\RMSF=5.821e-07\Dipole=0.,0.,0.\Quadrupole=-0.794
 9365,0.3974682,0.3974682,0.,0.,0.\PG=D*H [C*(N1.N1)]\\@
 The archive entry for this job was punched.


 IT IS BETTER TO THINK YOU ARE HALF DRY THAN TO KNOW YOU
 ARE ALL WET.  -- SNOOPY
 Job cpu time:       0 days  0 hours  1 minutes 53.2 seconds.
 Elapsed time:       0 days  0 hours  0 minutes  5.9 seconds.
 File lengths (MBytes):  RWF=      6 Int=      0 D2E=      0 Chk=      2 Scr=      1
 Normal termination of Gaussian 16 at Thu Jun  1 10:04:22 2023.
 Link1:  Proceeding to internal job step number  2.
 ------------------------------------------------------------------
 #N Geom=AllCheck Guess=TCheck SCRF=Check GenChk RB3LYP/GenECP Freq
 ------------------------------------------------------------------
 1/10=4,29=7,30=1,38=1,40=1,112=333150/1,3;
 2/12=2,40=1/2;
 3/5=7,6=2,11=2,14=-4,16=1,17=8,25=1,30=1,70=2,71=2,74=-5,82=7,116=1,124=41,140=1/1,2,3;
 4/5=101/1;
 5/5=2,38=6,98=1/2;
 8/6=4,10=90,11=11/1;
 11/6=1,8=1,9=11,15=111,16=1/1,2,10;
 10/6=1/2;
 6/7=2,8=2,9=2,10=2,28=1/1;
 7/8=1,10=1,25=1/1,2,3,16;
 1/10=4,30=1/3;
 99//99;
 Structure from the checkpoint file:  "N2_333K.chk"
 -------------------
 Title Card Required
 -------------------
 Charge =  0 Multiplicity = 1
 Redundant internal coordinates found in file.  (old form).
 N,0,-0.5181697729,-0.44999999,0.01374284
 N,0,-1.6234706071,-0.44999999,0.01374284
 Recover connectivity data from disk.

 GradGradGradGradGradGradGradGradGradGradGradGradGradGradGradGradGradGrad
 Berny optimization.
 Initialization pass.
                           ----------------------------
                           !    Initial Parameters    !
                           ! (Angstroms and Degrees)  !
 --------------------------                            --------------------------
 ! Name  Definition              Value          Derivative Info.                !
 --------------------------------------------------------------------------------
 ! R1    R(1,2)                  1.1053         calculate D2E/DX2 analytically  !
 --------------------------------------------------------------------------------
 Trust Radius=3.00D-01 FncErr=1.00D-07 GrdErr=1.00D-07 EigMax=2.50D+02 EigMin=1.00D-04
 Number of steps in this run=      2 maximum allowed number of steps=      2.
 GradGradGradGradGradGradGradGradGradGradGradGradGradGradGradGradGradGrad

                          Input orientation:                          
 ---------------------------------------------------------------------
 Center     Atomic      Atomic             Coordinates (Angstroms)
 Number     Number       Type             X           Y           Z
 ---------------------------------------------------------------------
      1          7           0       -0.518170   -0.450000    0.013743
      2          7           0       -1.623471   -0.450000    0.013743
 ---------------------------------------------------------------------
 Stoichiometry    N2
 Framework group  D*H[C*(N.N)]
 Deg. of freedom     1
 Full point group                 D*H     NOp   8
 Largest Abelian subgroup         D2H     NOp   8
 Largest concise Abelian subgroup C2      NOp   2
                         Standard orientation:                         
 ---------------------------------------------------------------------
 Center     Atomic      Atomic             Coordinates (Angstroms)
 Number     Number       Type             X           Y           Z
 ---------------------------------------------------------------------
      1          7           0        0.000000    0.000000    0.552650
      2          7           0        0.000000    0.000000   -0.552650
 ---------------------------------------------------------------------
 Rotational constants (GHZ):           0.0000000          59.0830376          59.0830376
 Basis read from chk: "N2_333K.chk" (5D, 7F)
 Pseudo-potential data read from chk file.
 There are     8 symmetry adapted cartesian basis functions of AG  symmetry.
 There are     1 symmetry adapted cartesian basis functions of B1G symmetry.
 There are     3 symmetry adapted cartesian basis functions of B2G symmetry.
 There are     3 symmetry adapted cartesian basis functions of B3G symmetry.
 There are     1 symmetry adapted cartesian basis functions of AU  symmetry.
 There are     8 symmetry adapted cartesian basis functions of B1U symmetry.
 There are     3 symmetry adapted cartesian basis functions of B2U symmetry.
 There are     3 symmetry adapted cartesian basis functions of B3U symmetry.
 There are     7 symmetry adapted basis functions of AG  symmetry.
 There are     1 symmetry adapted basis functions of B1G symmetry.
 There are     3 symmetry adapted basis functions of B2G symmetry.
 There are     3 symmetry adapted basis functions of B3G symmetry.
 There are     1 symmetry adapted basis functions of AU  symmetry.
 There are     7 symmetry adapted basis functions of B1U symmetry.
 There are     3 symmetry adapted basis functions of B2U symmetry.
 There are     3 symmetry adapted basis functions of B3U symmetry.
    28 basis functions,    56 primitive gaussians,    30 cartesian basis functions
     7 alpha electrons        7 beta electrons
       nuclear repulsion energy        23.4593899966 Hartrees.
 NAtoms=    2 NActive=    2 NUniq=    1 SFac= 4.00D+00 NAtFMM=   60 NAOKFM=F Big=F
 Integral buffers will be    131072 words long.
 Raffenetti 2 integral format.
 Two-electron integral symmetry is turned on.
 Nuclear repulsion after empirical dispersion term =       23.4586374503 Hartrees.
 One-electron integrals computed using PRISM.
   8 Symmetry operations used in ECPInt.
 ECPInt:  NShTT=      36 NPrTT=     289 LenC2=      37 LenP2D=     267.
 LDataN:  DoStor=T MaxTD1= 4 Len=   56
 NBasis=    28 RedAO= T EigKep=  5.61D-03  NBF=     7     1     3     3     1     7     3     3
 NBsUse=    28 1.00D-06 EigRej= -1.00D+00 NBFU=     7     1     3     3     1     7     3     3
 Initial guess from the checkpoint file:  "N2_333K.chk"
 B after Tr=    -0.000000    0.000000    0.000000
         Rot=    1.000000    0.000000    0.000000    0.000000 Ang=   0.00 deg.
 Initial guess orbital symmetries:
       Occupied  (SGG) (SGU) (SGG) (SGU) (PIU) (PIU) (SGG)
       Virtual   (PIG) (PIG) (SGU) (SGG) (PIU) (PIU) (SGG) (PIG)
                 (PIG) (SGU) (SGU) (DLTG) (DLTG) (PIU) (PIU) (DLTU)
                 (DLTU) (SGG) (PIG) (PIG) (SGU)
 Keep R1 ints in memory in symmetry-blocked form, NReq=22538857.
 Requested convergence on RMS density matrix=1.00D-08 within 128 cycles.
 Requested convergence on MAX density matrix=1.00D-06.
 Requested convergence on             energy=1.00D-06.
 No special actions if energy rises.
 Skip diagonalization as Alpha Fock matrix is already diagonal.
 SCF Done:  E(RB3LYP) =  -109.521470433     A.U. after    1 cycles
            NFock=  1  Conv=0.00D+00     -V/T= 2.0074
 DoSCS=F DFT=T ScalE2(SS,OS)=  1.000000  1.000000
 Range of M.O.s used for correlation:     1    28
 NBasis=    28 NAE=     7 NBE=     7 NFC=     0 NFV=     0
 NROrb=     28 NOA=     7 NOB=     7 NVA=    21 NVB=    21
   8 Symmetry operations used in ECPInt.
 ECPInt:  NShTT=      36 NPrTT=     289 LenC2=      37 LenP2D=     267.
 LDataN:  DoStor=T MaxTD1= 5 Len=  102
 Symmetrizing basis deriv contribution to polar:
 IMax=3 JMax=2 DiffMx= 0.00D+00
 G2DrvN: will do     3 centers at a time, making    1 passes.
 Calling FoFCou, ICntrl=  3107 FMM=F I1Cent=   0 AccDes= 0.00D+00.
 End of G2Drv F.D. properties file   721 does not exist.
 End of G2Drv F.D. properties file   722 does not exist.
 End of G2Drv F.D. properties file   788 does not exist.
          IDoAtm=11
          Differentiating once with respect to electric field.
                with respect to dipole field.
          Differentiating once with respect to nuclear coordinates.
 Keep R1 ints in memory in symmetry-blocked form, NReq=22449646.
          There are     6 degrees of freedom in the 1st order CPHF.  IDoFFX=4 NUNeed=     6.
      6 vectors produced by pass  0 Test12= 2.45D-15 1.67D-08 XBig12= 1.38D+01 2.49D+00.
 AX will form     6 AO Fock derivatives at one time.
      6 vectors produced by pass  1 Test12= 2.45D-15 1.67D-08 XBig12= 8.85D+00 1.62D+00.
      6 vectors produced by pass  2 Test12= 2.45D-15 1.67D-08 XBig12= 2.78D-02 7.60D-02.
      6 vectors produced by pass  3 Test12= 2.45D-15 1.67D-08 XBig12= 1.58D-04 5.77D-03.
      6 vectors produced by pass  4 Test12= 2.45D-15 1.67D-08 XBig12= 1.21D-07 1.42D-04.
      4 vectors produced by pass  5 Test12= 2.45D-15 1.67D-08 XBig12= 5.07D-11 4.03D-06.
      1 vectors produced by pass  6 Test12= 2.45D-15 1.67D-08 XBig12= 8.03D-14 1.50D-07.
 InvSVY:  IOpt=1 It=  1 EMax= 4.44D-16
 Solved reduced A of dimension    35 with     6 vectors.
 Isotropic polarizability for W=    0.000000        8.40 Bohr**3.
 End of Minotr F.D. properties file   721 does not exist.
 End of Minotr F.D. properties file   722 does not exist.
 End of Minotr F.D. properties file   788 does not exist.

 **********************************************************************

            Population analysis using the SCF Density.

 **********************************************************************

 Orbital symmetries:
       Occupied  (SGG) (SGU) (SGG) (SGU) (PIU) (PIU) (SGG)
       Virtual   (PIG) (PIG) (SGU) (SGG) (PIU) (PIU) (SGG) (PIG)
                 (PIG) (SGU) (SGU) (DLTG) (DLTG) (PIU) (PIU) (DLTU)
                 (DLTU) (SGG) (PIG) (PIG) (SGU)
 The electronic state is 1-SGG.
 Alpha  occ. eigenvalues --  -14.44199 -14.44058  -1.12308  -0.55162  -0.46158
 Alpha  occ. eigenvalues --   -0.46158  -0.42542
 Alpha virt. eigenvalues --   -0.02298  -0.02298   0.41558   0.59954   0.60672
 Alpha virt. eigenvalues --    0.60672   0.72404   0.75221   0.75221   0.81181
 Alpha virt. eigenvalues --    1.28336   1.45075   1.45075   1.54935   1.54935
 Alpha virt. eigenvalues --    1.94007   1.94007   2.47451   2.59508   2.59508
 Alpha virt. eigenvalues --    2.82684
          Condensed to atoms (all electrons):
               1          2
     1  N    6.371141   0.628859
     2  N    0.628859   6.371141
 Mulliken charges:
               1
     1  N   -0.000000
     2  N   -0.000000
 Sum of Mulliken charges =  -0.00000
 Mulliken charges with hydrogens summed into heavy atoms:
               1
     1  N   -0.000000
     2  N   -0.000000
 APT charges:
               1
     1  N    0.000000
     2  N    0.000000
 Sum of APT charges =   0.00000
 APT charges with hydrogens summed into heavy atoms:
               1
     1  N    0.000000
     2  N    0.000000
 Electronic spatial extent (au):  <R**2>=             38.7732
 Charge=             -0.0000 electrons
 Dipole moment (field-independent basis, Debye):
    X=             -0.0000    Y=              0.0000    Z=             -0.0000  Tot=              0.0000
 Quadrupole moment (field-independent basis, Debye-Ang):
   XX=            -10.0031   YY=            -10.0031   ZZ=            -11.6069
   XY=              0.0000   XZ=              0.0000   YZ=             -0.0000
 Traceless Quadrupole moment (field-independent basis, Debye-Ang):
   XX=              0.5346   YY=              0.5346   ZZ=             -1.0692
   XY=              0.0000   XZ=              0.0000   YZ=             -0.0000
 Octapole moment (field-independent basis, Debye-Ang**2):
  XXX=             -0.0000  YYY=              0.0000  ZZZ=              0.0000  XYY=             -0.0000
  XXY=             -0.0000  XXZ=              0.0000  XZZ=             -0.0000  YZZ=              0.0000
  YYZ=              0.0000  XYZ=             -0.0000
 Hexadecapole moment (field-independent basis, Debye-Ang**3):
 XXXX=             -7.9119 YYYY=             -7.9119 ZZZZ=            -30.4893 XXXY=              0.0000
 XXXZ=              0.0000 YYYX=              0.0000 YYYZ=             -0.0000 ZZZX=              0.0000
 ZZZY=             -0.0000 XXYY=             -2.6373 XXZZ=             -6.0151 YYZZ=             -6.0151
 XXYZ=             -0.0000 YYXZ=              0.0000 ZZXY=              0.0000
 N-N= 2.345863745030D+01 E-N=-3.028997285829D+02  KE= 1.087162983418D+02
 Symmetry AG   KE= 5.319532607352D+01
 Symmetry B1G  KE= 1.383615541737D-34
 Symmetry B2G  KE= 5.347519889767D-33
 Symmetry B3G  KE= 5.347519889767D-33
 Symmetry AU   KE= 4.509131967210D-34
 Symmetry B1U  KE= 4.873117162487D+01
 Symmetry B2U  KE= 3.394900321702D+00
 Symmetry B3U  KE= 3.394900321702D+00
  Exact polarizability:       5.955       0.000       5.955       0.000       0.000      13.282
 Approx polarizability:       8.221      -0.000       8.221      -0.000      -0.000      27.275
   8 Symmetry operations used in ECPInt.
 ECPInt:  NShTT=      36 NPrTT=     289 LenC2=      37 LenP2D=     267.
 LDataN:  DoStor=T MaxTD1= 6 Len=  172
 Calling FoFJK, ICntrl=    100127 FMM=F ISym2X=1 I1Cent= 0 IOpClX= 0 NMat=1 NMatS=1 NMatT=0.
 Full mass-weighted force constant matrix:
 Low frequencies ---   -0.0011   -0.0011    0.0017    4.7358    4.7358 2457.8108
 Diagonal vibrational polarizability:
        0.0000000       0.0000000       0.0000000
 Harmonic frequencies (cm**-1), IR intensities (KM/Mole), Raman scattering
 activities (A**4/AMU), depolarization ratios for plane and unpolarized
 incident light, reduced masses (AMU), force constants (mDyne/A),
 and normal coordinates:
                      1
                     SGG
 Frequencies --   2457.8108
 Red. masses --     14.0031
 Frc consts  --     49.8391
 IR Inten    --      0.0000
  Atom  AN      X      Y      Z
     1   7    -0.00   0.00   0.71
     2   7     0.00   0.00  -0.71

 -------------------
 - Thermochemistry -
 -------------------
 Temperature   333.150 Kelvin.  Pressure   1.00000 Atm.
 Atom     1 has atomic number  7 and mass  14.00307
 Atom     2 has atomic number  7 and mass  14.00307
 Molecular mass:    28.00615 amu.
 Principal axes and moments of inertia in atomic units:
                           1         2         3
     Eigenvalues --    -0.00000  30.54584  30.54584
           X           -0.00000   1.00000  -0.00000
           Y            0.00000   0.00000   1.00000
           Z            1.00000   0.00000  -0.00000
 This molecule is a prolate symmetric top.
 Rotational symmetry number  2.
 Rotational temperature (Kelvin)      2.83554
 Rotational constant (GHZ):          59.083038
 Zero-point vibrational energy      14701.0 (Joules/Mol)
                                    3.51362 (Kcal/Mol)
 Vibrational temperatures:   3536.24
          (Kelvin)
 
 Zero-point correction=                           0.005599 (Hartree/Particle)
 Thermal correction to Energy=                    0.008237
 Thermal correction to Enthalpy=                  0.009292
 Thermal correction to Gibbs Free Energy=        -0.015426
 Sum of electronic and zero-point Energies=           -109.515871
 Sum of electronic and thermal Energies=              -109.513233
 Sum of electronic and thermal Enthalpies=            -109.512178
 Sum of electronic and thermal Free Energies=         -109.536896
 
                     E (Thermal)             CV                S
                      KCal/Mol        Cal/Mol-Kelvin    Cal/Mol-Kelvin
 Total                    5.169              4.974             46.558
 Electronic               0.000              0.000              0.000
 Translational            0.993              2.981             36.476
 Rotational               0.662              1.987             10.082
 Vibrational              3.514              0.005              0.001
                       Q            Log10(Q)             Ln(Q)
 Total Bot       0.223825D+07          6.349908         14.621204
 Total V=0       0.451681D+09          8.654831         19.928486
 Vib (Bot)       0.495550D-02         -2.304912         -5.307257
 Vib (V=0)       0.100002D+01          0.000011          0.000025
 Electronic      0.100000D+01          0.000000          0.000000
 Translational   0.768859D+07          6.885846         15.855247
 Rotational      0.587454D+02          1.768974          4.073214
 ***** Axes restored to original set *****
 -------------------------------------------------------------------
 Center     Atomic                   Forces (Hartrees/Bohr)
 Number     Number              X              Y              Z
 -------------------------------------------------------------------
      1        7          -0.000001008   -0.000000000    0.000000000
      2        7           0.000001008    0.000000000   -0.000000000
 -------------------------------------------------------------------
 Cartesian Forces:  Max     0.000001008 RMS     0.000000582
 FormGI is forming the generalized inverse of G from B-inverse, IUseBI=4.

 GradGradGradGradGradGradGradGradGradGradGradGradGradGradGradGradGradGrad
 Berny optimization.
 Internal  Forces:  Max     0.000001008 RMS     0.000001008
 Search for a local minimum.
 Step number   1 out of a maximum of    2
 All quantities printed in internal units (Hartrees-Bohrs-Radians)
 Second derivative matrix not updated -- analytic derivatives used.
 The second derivative matrix:
                          R1
           R1           1.60060
 ITU=  0
     Eigenvalues ---    1.60060
 Angle between quadratic step and forces=  90.00 degrees.
 Linear search not attempted -- first point.
 Iteration  1 RMS(Cart)=  0.00000045 RMS(Int)=  0.00000000
 ClnCor:  largest displacement from symmetrization is 0.00D+00 for atom     0.
 Variable       Old X    -DE/DX   Delta X   Delta X   Delta X     New X
                                 (Linear)    (Quad)   (Total)
    R1        2.08872  -0.00000   0.00000  -0.00000  -0.00000   2.08872
         Item               Value     Threshold  Converged?
 Maximum Force            0.000001     0.000450     YES
 RMS     Force            0.000001     0.000300     YES
 Maximum Displacement     0.000000     0.001800     YES
 RMS     Displacement     0.000000     0.001200     YES
 Predicted change in Energy=-3.175952D-13
 Optimization completed.
    -- Stationary point found.
                           ----------------------------
                           !   Optimized Parameters   !
                           ! (Angstroms and Degrees)  !
 --------------------------                            --------------------------
 ! Name  Definition              Value          Derivative Info.                !
 --------------------------------------------------------------------------------
 ! R1    R(1,2)                  1.1053         -DE/DX =    0.0                 !
 --------------------------------------------------------------------------------
 GradGradGradGradGradGradGradGradGradGradGradGradGradGradGradGradGradGrad

 Dipole is zero, so no output in dipole orientation.

 ----------------------------------------------------------------------

 Electric dipole moment (input orientation):
 (Debye = 10**-18 statcoulomb cm , SI units = C m)
                  (au)            (Debye)         (10**-30 SI)
   Tot        0.000000D+00      0.000000D+00      0.000000D+00
   x          0.000000D+00      0.000000D+00      0.000000D+00
   y          0.000000D+00      0.000000D+00      0.000000D+00
   z          0.000000D+00      0.000000D+00      0.000000D+00

 Dipole polarizability, Alpha (input orientation).
 (esu units = cm**3 , SI units = C**2 m**2 J**-1)
 Alpha(0;0):
               (au)            (10**-24 esu)      (10**-40 SI)
   iso        0.839747D+01      0.124438D+01      0.138456D+01
   aniso      0.732635D+01      0.108565D+01      0.120795D+01
   xx         0.132817D+02      0.196815D+01      0.218986D+01
   yx         0.000000D+00      0.000000D+00      0.000000D+00
   yy         0.595535D+01      0.882492D+00      0.981905D+00
   zx         0.000000D+00      0.000000D+00      0.000000D+00
   zy         0.000000D+00      0.000000D+00      0.000000D+00
   zz         0.595535D+01      0.882492D+00      0.981905D+00

 ----------------------------------------------------------------------
 Unable to Open any file for archive entry.
 1\1\GINC-NODE10\Freq\RB3LYP\GenECP\N2\WEICHI\01-Jun-2023\0\\#N Geom=Al
 lCheck Guess=TCheck SCRF=Check GenChk RB3LYP/GenECP Freq\\Title Card R
 equired\\0,1\N,-0.5181697729,-0.44999999,0.01374284\N,-1.6234706071,-0
 .44999999,0.01374284\\Version=ES64L-G16RevC.01\State=1-SGG\HF=-109.521
 4704\RMSD=0.000e+00\RMSF=5.821e-07\ZeroPoint=0.0055993\Thermal=0.00823
 71\ETot=-109.5132333\HTot=-109.5121783\GTot=-109.5368961\Dipole=0.,0.,
 0.\DipoleDeriv=0.,0.,0.,0.,0.,0.,0.,0.,0.,0.,0.,0.,0.,0.,0.,0.,0.,0.\P
 olar=13.2817015,0.,5.9553514,0.,0.,5.9553514\Quadrupole=-0.7949365,0.3
 974682,0.3974682,0.,0.,0.\PG=D*H [C*(N1.N1)]\NImag=0\\1.60059602,0.,0.
 00000594,0.,0.,0.00000594,-1.60059602,0.,0.,1.60059602,0.,-0.00000594,
 0.,0.,0.00000594,0.,0.,-0.00000594,0.,0.,0.00000594\\0.00000101,0.,0.,
 -0.00000101,0.,0.\\\@
 The archive entry for this job was punched.


 A great many people think they are thinking when they
 are merely rearranging their prejudices.
                               -- William James
 Job cpu time:       0 days  0 hours  1 minutes 10.3 seconds.
 Elapsed time:       0 days  0 hours  0 minutes  3.5 seconds.
 File lengths (MBytes):  RWF=      6 Int=      0 D2E=      0 Chk=      2 Scr=      1
 Normal termination of Gaussian 16 at Thu Jun  1 10:04:27 2023.
