 Entering Gaussian System, Link 0=g16
 Initial command:
 /soft/g16/l1.exe "/tmp/Gau-21456.inp" -scrdir="/tmp/"
 Entering Link 1 = /soft/g16/l1.exe PID=     21457.
  
 Copyright (c) 1988-2019, Gaussian, Inc.  All Rights Reserved.
  
 This is part of the Gaussian(R) 16 program.  It is based on
 the Gaussian(R) 09 system (copyright 2009, Gaussian, Inc.),
 the Gaussian(R) 03 system (copyright 2003, Gaussian, Inc.),
 the Gaussian(R) 98 system (copyright 1998, Gaussian, Inc.),
 the Gaussian(R) 94 system (copyright 1995, Gaussian, Inc.),
 the Gaussian 92(TM) system (copyright 1992, Gaussian, Inc.),
 the Gaussian 90(TM) system (copyright 1990, Gaussian, Inc.),
 the Gaussian 88(TM) system (copyright 1988, Gaussian, Inc.),
 the Gaussian 86(TM) system (copyright 1986, Carnegie Mellon
 University), and the Gaussian 82(TM) system (copyright 1983,
 Carnegie Mellon University). Gaussian is a federally registered
 trademark of Gaussian, Inc.
  
 This software contains proprietary and confidential information,
 including trade secrets, belonging to Gaussian, Inc.
  
 This software is provided under written license and may be
 used, copied, transmitted, or stored only in accord with that
 written license.
  
 The following legend is applicable only to US Government
 contracts under FAR:
  
                    RESTRICTED RIGHTS LEGEND
  
 Use, reproduction and disclosure by the US Government is
 subject to restrictions as set forth in subparagraphs (a)
 and (c) of the Commercial Computer Software - Restricted
 Rights clause in FAR 52.227-19.
  
 Gaussian, Inc.
 340 Quinnipiac St., Bldg. 40, Wallingford CT 06492
  
  
 ---------------------------------------------------------------
 Warning -- This program may not be used in any manner that
 competes with the business of Gaussian, Inc. or will provide
 assistance to any competitor of Gaussian, Inc.  The licensee
 of this program is prohibited from giving any competitor of
 Gaussian, Inc. access to this program.  By using this program,
 the user acknowledges that Gaussian, Inc. is engaged in the
 business of creating and licensing software in the field of
 computational chemistry and represents and warrants to the
 licensee that it is not a competitor of Gaussian, Inc. and that
 it will not use this program in any manner prohibited above.
 ---------------------------------------------------------------
  

 Cite this work as:
 Gaussian 16, Revision C.01,
 M. J. Frisch, G. W. Trucks, H. B. Schlegel, G. E. Scuseria, 
 M. A. Robb, J. R. Cheeseman, G. Scalmani, V. Barone, 
 G. A. Petersson, H. Nakatsuji, X. Li, M. Caricato, A. V. Marenich, 
 J. Bloino, B. G. Janesko, R. Gomperts, B. Mennucci, H. P. Hratchian, 
 J. V. Ortiz, A. F. Izmaylov, J. L. Sonnenberg, D. Williams-Young, 
 F. Ding, F. Lipparini, F. Egidi, J. Goings, B. Peng, A. Petrone, 
 T. Henderson, D. Ranasinghe, V. G. Zakrzewski, J. Gao, N. Rega, 
 G. Zheng, W. Liang, M. Hada, M. Ehara, K. Toyota, R. Fukuda, 
 J. Hasegawa, M. Ishida, T. Nakajima, Y. Honda, O. Kitao, H. Nakai, 
 T. Vreven, K. Throssell, J. A. Montgomery, Jr., J. E. Peralta, 
 F. Ogliaro, M. J. Bearpark, J. J. Heyd, E. N. Brothers, K. N. Kudin, 
 V. N. Staroverov, T. A. Keith, R. Kobayashi, J. Normand, 
 K. Raghavachari, A. P. Rendell, J. C. Burant, S. S. Iyengar, 
 J. Tomasi, M. Cossi, J. M. Millam, M. Klene, C. Adamo, R. Cammi, 
 J. W. Ochterski, R. L. Martin, K. Morokuma, O. Farkas, 
 J. B. Foresman, and D. J. Fox, Gaussian, Inc., Wallingford CT, 2019.
 
 ******************************************
 Gaussian 16:  ES64L-G16RevC.01  3-Jul-2019
                15-Dec-2025 
 ******************************************
 %nprocshared=28
 Will use up to   28 processors via shared memory.
 %mem=28GB
 %chk=OTf-_nosymm.chk
 ------------------------------------------------------------
 # PBE1PBE/def2tzvp empiricaldispersion=gd3bj freq opt nosymm
 ------------------------------------------------------------
 1/18=20,19=15,26=3,38=1/1,3;
 2/9=110,12=2,15=1,17=6,18=5,40=1/2;
 3/5=44,7=101,11=2,25=1,30=1,71=1,74=-13,124=41/1,2,3;
 4//1;
 5/5=2,38=5/2;
 6/7=2,8=2,9=2,10=2,28=1/1;
 7/30=1/1,2,3,16;
 1/18=20,19=15,26=3/3(2);
 2/9=110,15=1/2;
 99//99;
 2/9=110,15=1/2;
 3/5=44,7=101,11=2,25=1,30=1,71=1,74=-13,124=41/1,2,3;
 4/5=5,16=3,69=1/1;
 5/5=2,38=5/2;
 7/30=1/1,2,3,16;
 1/18=20,19=15,26=3/3(-5);
 2/9=110,15=1/2;
 6/7=2,8=2,9=2,10=2,19=2,28=1/1;
 99/9=1/99;
 ----------------------------
 Charge and Spin multiplicity
 ----------------------------
 Symbolic Z-matrix:
 Charge = -1 Multiplicity = 1
 S                    -1.3456    0.7194    1.43483 
 O                     0.03039   0.7194    1.43483 
 O                    -2.05759   1.90303   1.43483 
 O                    -1.80556   0.02778   0. 
 C                    -1.96681  -0.40068   2.50522 
 F                    -2.99611   0.08166   3.2335 
 F                    -2.44063  -1.50353   1.88739 
 F                    -1.0492   -0.84723   3.38901 
 

 GradGradGradGradGradGradGradGradGradGradGradGradGradGradGradGradGradGrad
 Berny optimization.
 Initialization pass.
                           ----------------------------
                           !    Initial Parameters    !
                           ! (Angstroms and Degrees)  !
 --------------------------                            --------------------------
 ! Name  Definition              Value          Derivative Info.                !
 --------------------------------------------------------------------------------
 ! R1    R(1,2)                  1.376          estimate D2E/DX2                !
 ! R2    R(1,3)                  1.3813         estimate D2E/DX2                !
 ! R3    R(1,4)                  1.6579         estimate D2E/DX2                !
 ! R4    R(1,5)                  1.6692         estimate D2E/DX2                !
 ! R5    R(5,6)                  1.35           estimate D2E/DX2                !
 ! R6    R(5,7)                  1.35           estimate D2E/DX2                !
 ! R7    R(5,8)                  1.35           estimate D2E/DX2                !
 ! A1    A(2,1,3)              121.0281         estimate D2E/DX2                !
 ! A2    A(2,1,4)              106.107          estimate D2E/DX2                !
 ! A3    A(2,1,5)              111.849          estimate D2E/DX2                !
 ! A4    A(3,1,4)              102.3846         estimate D2E/DX2                !
 ! A5    A(3,1,5)              112.531          estimate D2E/DX2                !
 ! A6    A(4,1,5)               99.8922         estimate D2E/DX2                !
 ! A7    A(1,5,6)              112.9508         estimate D2E/DX2                !
 ! A8    A(1,5,7)              112.6642         estimate D2E/DX2                !
 ! A9    A(1,5,8)              112.8802         estimate D2E/DX2                !
 ! A10   A(6,5,7)              105.7337         estimate D2E/DX2                !
 ! A11   A(6,5,8)              106.4544         estimate D2E/DX2                !
 ! A12   A(7,5,8)              105.5425         estimate D2E/DX2                !
 ! D1    D(2,1,5,6)            136.2424         estimate D2E/DX2                !
 ! D2    D(2,1,5,7)           -104.0254         estimate D2E/DX2                !
 ! D3    D(2,1,5,8)             15.4069         estimate D2E/DX2                !
 ! D4    D(3,1,5,6)             -3.8946         estimate D2E/DX2                !
 ! D5    D(3,1,5,7)            115.8376         estimate D2E/DX2                !
 ! D6    D(3,1,5,8)           -124.7302         estimate D2E/DX2                !
 ! D7    D(4,1,5,6)           -111.836          estimate D2E/DX2                !
 ! D8    D(4,1,5,7)              7.8962         estimate D2E/DX2                !
 ! D9    D(4,1,5,8)            127.3285         estimate D2E/DX2                !
 --------------------------------------------------------------------------------
 Trust Radius=3.00D-01 FncErr=1.00D-07 GrdErr=1.00D-06 EigMax=2.50D+02 EigMin=1.00D-04
 Number of steps in this run=     38 maximum allowed number of steps=    100.
 GradGradGradGradGradGradGradGradGradGradGradGradGradGradGradGradGradGrad

                          Input orientation:                          
 ---------------------------------------------------------------------
 Center     Atomic      Atomic             Coordinates (Angstroms)
 Number     Number       Type             X           Y           Z
 ---------------------------------------------------------------------
      1         16           0       -1.345600    0.719401    1.434829
      2          8           0        0.030388    0.719401    1.434829
      3          8           0       -2.057589    1.903035    1.434829
      4          8           0       -1.805555    0.027778    0.000000
      5          6           0       -1.966810   -0.400681    2.505216
      6          9           0       -2.996109    0.081656    3.233499
      7          9           0       -2.440630   -1.503532    1.887385
      8          9           0       -1.049201   -0.847226    3.389009
 ---------------------------------------------------------------------
                    Distance matrix (angstroms):
                    1          2          3          4          5
     1  S    0.000000
     2  O    1.375988   0.000000
     3  O    1.381274   2.400133   0.000000
     4  O    1.657901   2.430589   2.374625   0.000000
     5  C    1.669196   2.527669   2.541865   2.546701   0.000000
     6  F    2.523115   3.577934   2.726436   3.446133   1.350000
     7  F    2.518994   3.354425   3.457778   2.512062   1.350000
     8  F    2.522101   2.727389   3.521307   3.580934   1.350000
                    6          7          8
     6  F    0.000000
     7  F    2.152533   0.000000
     8  F    2.162742   2.149811   0.000000
 Symmetry turned off by external request.
 Stoichiometry    CF3O3S(1-)
 Framework group  C1[X(CF3O3S)]
 Deg. of freedom    18
 Full point group                 C1      NOp   1
 Rotational constants (GHZ):           2.7898980           1.6586713           1.6444826
 Standard basis: def2TZVP (5D, 7F)
   254 basis functions,   426 primitive gaussians,   294 cartesian basis functions
    37 alpha electrons       37 beta electrons
       nuclear repulsion energy       564.3670278566 Hartrees.
 NAtoms=    8 NActive=    8 NUniq=    8 SFac= 1.00D+00 NAtFMM=   60 NAOKFM=F Big=F
 Integral buffers will be    131072 words long.
 Raffenetti 2 integral format.
 Two-electron integral symmetry is turned off.
 Nuclear repulsion after empirical dispersion term =      564.3609747620 Hartrees.
 One-electron integrals computed using PRISM.
   1 Symmetry operations used in ECPInt.
 ECPInt:  NShTT=    4095 NPrTT=   14218 LenC2=    3949 LenP2D=   10439.
 LDataN:  DoStor=T MaxTD1= 6 Len=  172
 NBasis=   254 RedAO= T EigKep=  6.33D-04  NBF=   254
 NBsUse=   254 1.00D-06 EigRej= -1.00D+00 NBFU=   254
 ExpMin= 9.52D-02 ExpMax= 6.07D+04 ExpMxC= 2.07D+03 IAcc=3 IRadAn=         5 AccDes= 0.00D+00
 Harris functional with IExCor= 1009 and IRadAn=       5 diagonalized for initial guess.
 HarFok:  IExCor= 1009 AccDes= 0.00D+00 IRadAn=         5 IDoV= 1 UseB2=F ITyADJ=14
 ICtDFT=  3500011 ScaDFX=  1.000000  1.000000  1.000000  1.000000
 FoFCou: FMM=F IPFlag=           0 FMFlag=      100000 FMFlg1=           0
         NFxFlg=           0 DoJE=T BraDBF=F KetDBF=T FulRan=T
         wScrn=  0.000000 ICntrl=       500 IOpCl=  0 I1Cent=   200000004 NGrid=           0
         NMat0=    1 NMatS0=      1 NMatT0=    0 NMatD0=    1 NMtDS0=    0 NMtDT0=    0
 Symmetry not used in FoFCou.
 Keep R1 ints in memory in canonical form, NReq=555928603.
 Requested convergence on RMS density matrix=1.00D-08 within 128 cycles.
 Requested convergence on MAX density matrix=1.00D-06.
 Requested convergence on             energy=1.00D-06.
 No special actions if energy rises.
 Integral accuracy reduced to 1.0D-05 until final iterations.
 EnCoef did     3 forward-backward iterations
 EnCoef did     3 forward-backward iterations
 Initial convergence to 1.0D-05 achieved.  Increase integral accuracy.
 SCF Done:  E(RPBE1PBE) =  -961.074488340     A.U. after   16 cycles
            NFock= 16  Conv=0.86D-08     -V/T= 2.0020

 **********************************************************************

            Population analysis using the SCF Density.

 **********************************************************************

 Alpha  occ. eigenvalues --  -89.01811 -24.67180 -24.67129 -24.65574 -19.02579
 Alpha  occ. eigenvalues --  -19.01986 -18.94778 -10.33472  -7.97007  -5.90705
 Alpha  occ. eigenvalues --   -5.90580  -5.90499  -1.21460  -1.12700  -1.11498
 Alpha  occ. eigenvalues --   -1.00582  -0.89004  -0.73428  -0.64512  -0.52719
 Alpha  occ. eigenvalues --   -0.48272  -0.47666  -0.38670  -0.35662  -0.35579
 Alpha  occ. eigenvalues --   -0.32045  -0.31900  -0.31194  -0.30412  -0.29888
 Alpha  occ. eigenvalues --   -0.29177  -0.20869  -0.19781  -0.17685  -0.14018
 Alpha  occ. eigenvalues --   -0.07401  -0.05661
 Alpha virt. eigenvalues --    0.17780   0.21274   0.26837   0.30930   0.35545
 Alpha virt. eigenvalues --    0.37526   0.38421   0.38475   0.39269   0.41902
 Alpha virt. eigenvalues --    0.42906   0.46658   0.49039   0.50445   0.56645
 Alpha virt. eigenvalues --    0.59719   0.60555   0.63192   0.63552   0.65228
 Alpha virt. eigenvalues --    0.65973   0.67340   0.68829   0.71622   0.73020
 Alpha virt. eigenvalues --    0.74210   0.78511   0.78806   0.81596   0.83386
 Alpha virt. eigenvalues --    0.84949   0.86474   0.88797   0.91706   0.93783
 Alpha virt. eigenvalues --    0.95303   0.96533   0.99803   1.02322   1.05292
 Alpha virt. eigenvalues --    1.10209   1.10623   1.13133   1.15849   1.19376
 Alpha virt. eigenvalues --    1.20685   1.22855   1.29001   1.32582   1.49530
 Alpha virt. eigenvalues --    1.52853   1.54213   1.58037   1.61651   1.66878
 Alpha virt. eigenvalues --    1.70730   1.73706   1.76746   1.77272   1.78023
 Alpha virt. eigenvalues --    1.81027   1.84072   1.88267   1.90188   1.94443
 Alpha virt. eigenvalues --    1.97693   1.98539   2.01883   2.09069   2.10376
 Alpha virt. eigenvalues --    2.12907   2.17662   2.19165   2.21960   2.26735
 Alpha virt. eigenvalues --    2.28450   2.32177   2.33890   2.37402   2.42699
 Alpha virt. eigenvalues --    2.44628   2.45305   2.48396   2.50780   2.52687
 Alpha virt. eigenvalues --    2.53013   2.59444   2.61117   2.61374   2.63068
 Alpha virt. eigenvalues --    2.67988   2.69322   2.71023   2.73108   2.74325
 Alpha virt. eigenvalues --    2.90150   2.91342   2.97421   2.99138   3.02777
 Alpha virt. eigenvalues --    3.14839   3.15505   3.17254   3.20014   3.22408
 Alpha virt. eigenvalues --    3.25397   3.28922   3.29645   3.35208   3.36140
 Alpha virt. eigenvalues --    3.39905   3.41893   3.42697   3.43655   3.48228
 Alpha virt. eigenvalues --    3.57799   3.64655   3.66380   3.76164   3.86819
 Alpha virt. eigenvalues --    3.92568   3.94987   3.97358   4.01811   4.07087
 Alpha virt. eigenvalues --    4.08439   4.11799   4.12010   4.12461   4.31602
 Alpha virt. eigenvalues --    4.40509   5.11179   5.28193   5.29859   5.30927
 Alpha virt. eigenvalues --    5.31930   5.33125   5.37535   5.39168   5.40796
 Alpha virt. eigenvalues --    5.41953   5.44761   5.46453   5.47504   5.48288
 Alpha virt. eigenvalues --    5.50994   5.57963   5.62862   5.64598   5.69720
 Alpha virt. eigenvalues --    5.84769   5.89293   6.01324   6.04499   6.11269
 Alpha virt. eigenvalues --    6.48057   6.51842   6.52156   6.61649   6.62793
 Alpha virt. eigenvalues --    6.66164   6.82066   6.86674   6.94857   6.95525
 Alpha virt. eigenvalues --    6.97704   6.98498   6.98515   6.99082   6.99453
 Alpha virt. eigenvalues --    6.99608   7.00478   7.01075   7.01501   7.06210
 Alpha virt. eigenvalues --    7.08042   7.11087   7.11545   7.12012   7.16708
 Alpha virt. eigenvalues --    7.18609   7.20762   7.21317   7.22505   7.25910
 Alpha virt. eigenvalues --    7.46995   7.47718   7.49427   7.60022   7.70746
 Alpha virt. eigenvalues --    7.71700   8.43239   8.44457   8.47083   8.59277
 Alpha virt. eigenvalues --    8.61456   8.61813   8.81965   8.88889   8.89721
 Alpha virt. eigenvalues --    9.00099   9.06158   9.14933   9.15268   9.19883
 Alpha virt. eigenvalues --    9.24555   9.54944   9.87976  10.07533  22.81320
 Alpha virt. eigenvalues --   23.21388  43.70139  43.87421  44.03043  57.34001
 Alpha virt. eigenvalues --   57.36233  57.39498
          Condensed to atoms (all electrons):
               1          2          3          4          5          6
     1  S   13.468077   0.603072   0.608251   0.533595   0.297280  -0.048350
     2  O    0.603072   8.013077  -0.069896  -0.096717  -0.034472   0.001804
     3  O    0.608251  -0.069896   8.029610  -0.112672  -0.036877  -0.001231
     4  O    0.533595  -0.096717  -0.112672   8.381584  -0.010595   0.001259
     5  C    0.297280  -0.034472  -0.036877  -0.010595   4.437549   0.331198
     6  F   -0.048350   0.001804  -0.001231   0.001259   0.331198   8.995885
     7  F   -0.060686   0.002231   0.002163  -0.030026   0.362120  -0.059543
     8  F   -0.045516  -0.001293   0.001797   0.001628   0.325054  -0.056261
               7          8
     1  S   -0.060686  -0.045516
     2  O    0.002231  -0.001293
     3  O    0.002163   0.001797
     4  O   -0.030026   0.001628
     5  C    0.362120   0.325054
     6  F   -0.059543  -0.056261
     7  F    8.977401  -0.060780
     8  F   -0.060780   9.003748
 Mulliken charges:
               1
     1  S    0.644277
     2  O   -0.417806
     3  O   -0.421145
     4  O   -0.668055
     5  C    0.328744
     6  F   -0.164758
     7  F   -0.132880
     8  F   -0.168377
 Sum of Mulliken charges =  -1.00000
 Mulliken charges with hydrogens summed into heavy atoms:
               1
     1  S    0.644277
     2  O   -0.417806
     3  O   -0.421145
     4  O   -0.668055
     5  C    0.328744
     6  F   -0.164758
     7  F   -0.132880
     8  F   -0.168377
 Electronic spatial extent (au):  <R**2>=           2491.6784
 Charge=             -1.0000 electrons
 Dipole moment (field-independent basis, Debye):
    X=              7.3275    Y=             -2.3463    Z=             -3.9141  Tot=              8.6323
 Quadrupole moment (field-independent basis, Debye-Ang):
   XX=            -68.5386   YY=            -58.2925   ZZ=            -60.5115
   XY=              3.7796   XZ=              5.3125   YZ=             -2.7513
 Traceless Quadrupole moment (field-independent basis, Debye-Ang):
   XX=             -6.0910   YY=              4.1550   ZZ=              1.9360
   XY=              3.7796   XZ=              5.3125   YZ=             -2.7513
 Octapole moment (field-independent basis, Debye-Ang**2):
  XXX=            290.2940  YYY=            -42.8089  ZZZ=           -300.7301  XYY=             99.1897
  XXY=            -20.5519  XXZ=           -109.6390  XZZ=             99.5971  YZZ=            -10.8447
  YYZ=           -103.2274  XYZ=              4.8304
 Hexadecapole moment (field-independent basis, Debye-Ang**3):
 XXXX=          -1151.4638 YYYY=           -346.7717 ZZZZ=          -1404.4518 XXXY=             48.0268
 XXXZ=            527.5462 YYYX=             50.8916 YYYZ=            -21.9879 ZZZX=            526.3060
 ZZZY=              7.7858 XXYY=           -265.5322 XXZZ=           -447.4677 YYZZ=           -291.6871
 XXYZ=            -16.1170 YYXZ=            183.0127 ZZXY=             12.9516
 N-N= 5.643609747620D+02 E-N=-3.426427336451D+03  KE= 9.591121981043D+02
   1 Symmetry operations used in ECPInt.
 ECPInt:  NShTT=    4095 NPrTT=   14218 LenC2=    3949 LenP2D=   10439.
 LDataN:  DoStor=T MaxTD1= 7 Len=  274
 Calling FoFJK, ICntrl=      2127 FMM=F ISym2X=0 I1Cent= 0 IOpClX= 0 NMat=1 NMatS=1 NMatT=0.
 -------------------------------------------------------------------
 Center     Atomic                   Forces (Hartrees/Bohr)
 Number     Number              X              Y              Z
 -------------------------------------------------------------------
      1       16          -0.053504125   -0.052672845   -0.269008162
      2        8           0.100441325    0.003599007    0.040529649
      3        8          -0.039921941    0.085395815    0.048823354
      4        8           0.028215651    0.030031326    0.101801776
      5        6          -0.042887323   -0.076729357    0.063692560
      6        9           0.003383644    0.001031338   -0.000572241
      7        9           0.004034859    0.006687621    0.012892767
      8        9           0.000237910    0.002657095    0.001840297
 -------------------------------------------------------------------
 Cartesian Forces:  Max     0.269008162 RMS     0.072201148

 GradGradGradGradGradGradGradGradGradGradGradGradGradGradGradGradGradGrad
 Berny optimization.
 FormGI is forming the generalized inverse of G from B-inverse, IUseBI=4.
 Internal  Forces:  Max     0.108459920 RMS     0.043552349
 Search for a local minimum.
 Step number   1 out of a maximum of   38
 All quantities printed in internal units (Hartrees-Bohrs-Radians)
 Mixed Optimization -- RFO/linear search
 Second derivative matrix not updated -- first step.
 ITU=  0
     Eigenvalues ---    0.02101   0.08359   0.09110   0.09223   0.11686
     Eigenvalues ---    0.25000   0.25000   0.25000   0.25000   0.25000
     Eigenvalues ---    0.25000   0.39869   0.41474   0.55021   0.55021
     Eigenvalues ---    0.55021   1.34551   1.38325
 RFO step:  Lambda=-1.01585358D-01 EMin= 2.10059321D-02
 Linear search not attempted -- first point.
 Maximum step size (   0.300) exceeded in Quadratic search.
    -- Step size scaled by   0.694
 Iteration  1 RMS(Cart)=  0.05694201 RMS(Int)=  0.00670243
 Iteration  2 RMS(Cart)=  0.00670039 RMS(Int)=  0.00429662
 Iteration  3 RMS(Cart)=  0.00009719 RMS(Int)=  0.00429619
 Iteration  4 RMS(Cart)=  0.00000186 RMS(Int)=  0.00429618
 Iteration  5 RMS(Cart)=  0.00000003 RMS(Int)=  0.00429618
 Variable       Old X    -DE/DX   Delta X   Delta X   Delta X     New X
                                 (Linear)    (Quad)   (Total)
    R1        2.60024   0.10044   0.00000   0.04695   0.04695   2.64719
    R2        2.61023   0.09376   0.00000   0.04497   0.04497   2.65520
    R3        3.13298  -0.10846   0.00000  -0.14579  -0.14579   2.98719
    R4        3.15432   0.10756   0.00000   0.14922   0.14922   3.30355
    R5        2.55113  -0.00252   0.00000  -0.00268  -0.00268   2.54845
    R6        2.55113  -0.01278   0.00000  -0.01361  -0.01361   2.53752
    R7        2.55113   0.00049   0.00000   0.00052   0.00052   2.55165
    A1        2.11234   0.02522   0.00000   0.01751   0.00142   2.11376
    A2        1.85192   0.03439   0.00000   0.09196   0.09158   1.94350
    A3        1.95213  -0.03720   0.00000  -0.08935  -0.09796   1.85418
    A4        1.78695   0.04412   0.00000   0.12235   0.12255   1.90950
    A5        1.96404  -0.03947   0.00000  -0.09123  -0.09960   1.86444
    A6        1.74345  -0.01636   0.00000  -0.00622  -0.00629   1.73716
    A7        1.97136  -0.00509   0.00000  -0.01142  -0.01153   1.95983
    A8        1.96636   0.01578   0.00000   0.03448   0.03450   2.00086
    A9        1.97013  -0.00445   0.00000  -0.01073  -0.01082   1.95931
   A10        1.84540  -0.00315   0.00000  -0.00273  -0.00273   1.84267
   A11        1.85798   0.00064   0.00000  -0.00461  -0.00481   1.85317
   A12        1.84206  -0.00429   0.00000  -0.00598  -0.00596   1.83610
    D1        2.37788  -0.02416   0.00000  -0.08982  -0.08551   2.29237
    D2       -1.81559  -0.02049   0.00000  -0.07661  -0.07234  -1.88793
    D3        0.26890  -0.01789   0.00000  -0.06726  -0.06306   0.20584
    D4       -0.06797   0.02276   0.00000   0.08600   0.08162   0.01365
    D5        2.02175   0.02643   0.00000   0.09922   0.09479   2.11653
    D6       -2.17695   0.02902   0.00000   0.10856   0.10407  -2.07288
    D7       -1.95191  -0.00642   0.00000  -0.02000  -0.01977  -1.97168
    D8        0.13781  -0.00276   0.00000  -0.00679  -0.00661   0.13121
    D9        2.22230  -0.00016   0.00000   0.00256   0.00267   2.22498
         Item               Value     Threshold  Converged?
 Maximum Force            0.108460     0.000450     NO 
 RMS     Force            0.043552     0.000300     NO 
 Maximum Displacement     0.194078     0.001800     NO 
 RMS     Displacement     0.057846     0.001200     NO 
 Predicted change in Energy=-5.233263D-02
 GradGradGradGradGradGradGradGradGradGradGradGradGradGradGradGradGradGrad

                          Input orientation:                          
 ---------------------------------------------------------------------
 Center     Atomic      Atomic             Coordinates (Angstroms)
 Number     Number       Type             X           Y           Z
 ---------------------------------------------------------------------
      1         16           0       -1.344631    0.732640    1.332127
      2          8           0        0.048146    0.710092    1.480437
      3          8           0       -2.073613    1.921761    1.501828
      4          8           0       -1.791913    0.029519   -0.011127
      5          6           0       -1.977739   -0.418014    2.485920
      6          9           0       -2.987248    0.094814    3.218428
      7          9           0       -2.463156   -1.546075    1.942822
      8          9           0       -1.040953   -0.824906    3.369161
 ---------------------------------------------------------------------
                    Distance matrix (angstroms):
                    1          2          3          4          5
     1  S    0.000000
     2  O    1.400832   0.000000
     3  O    1.405069   2.443452   0.000000
     4  O    1.580751   2.464500   2.439050   0.000000
     5  C    1.748162   2.527415   2.540113   2.543631   0.000000
     6  F    2.581307   3.551450   2.668179   3.444287   1.348580
     7  F    2.610861   3.407452   3.517401   2.598265   1.342799
     8  F    2.582184   2.666389   3.478145   3.566556   1.350275
                    6          7          8
     6  F    0.000000
     7  F    2.143446   0.000000
     8  F    2.157931   2.139437   0.000000
 Symmetry turned off by external request.
 Stoichiometry    CF3O3S(1-)
 Framework group  C1[X(CF3O3S)]
 Deg. of freedom    18
 Full point group                 C1      NOp   1
 Rotational constants (GHZ):           2.7498386           1.6326903           1.6261895
 Standard basis: def2TZVP (5D, 7F)
   254 basis functions,   426 primitive gaussians,   294 cartesian basis functions
    37 alpha electrons       37 beta electrons
       nuclear repulsion energy       560.4130736864 Hartrees.
 NAtoms=    8 NActive=    8 NUniq=    8 SFac= 1.00D+00 NAtFMM=   60 NAOKFM=F Big=F
 Integral buffers will be    131072 words long.
 Raffenetti 2 integral format.
 Two-electron integral symmetry is turned off.
 Nuclear repulsion after empirical dispersion term =      560.4070373244 Hartrees.
 One-electron integrals computed using PRISM.
   1 Symmetry operations used in ECPInt.
 ECPInt:  NShTT=    4095 NPrTT=   14218 LenC2=    3947 LenP2D=   10435.
 LDataN:  DoStor=T MaxTD1= 6 Len=  172
 NBasis=   254 RedAO= T EigKep=  7.29D-04  NBF=   254
 NBsUse=   254 1.00D-06 EigRej= -1.00D+00 NBFU=   254
 Initial guess from the checkpoint file:  "OTf-_nosymm.chk"
 B after Tr=    -0.007657   -0.010237   -0.026083
         Rot=    0.999997    0.002017   -0.001170   -0.000108 Ang=   0.27 deg.
 ExpMin= 9.52D-02 ExpMax= 6.07D+04 ExpMxC= 2.07D+03 IAcc=3 IRadAn=         5 AccDes= 0.00D+00
 Harris functional with IExCor= 1009 and IRadAn=       5 diagonalized for initial guess.
 HarFok:  IExCor= 1009 AccDes= 0.00D+00 IRadAn=         5 IDoV= 1 UseB2=F ITyADJ=14
 ICtDFT=  3500011 ScaDFX=  1.000000  1.000000  1.000000  1.000000
 FoFCou: FMM=F IPFlag=           0 FMFlag=      100000 FMFlg1=           0
         NFxFlg=           0 DoJE=T BraDBF=F KetDBF=T FulRan=T
         wScrn=  0.000000 ICntrl=       500 IOpCl=  0 I1Cent=   200000004 NGrid=           0
         NMat0=    1 NMatS0=      1 NMatT0=    0 NMatD0=    1 NMtDS0=    0 NMtDT0=    0
 Symmetry not used in FoFCou.
 Keep R1 ints in memory in canonical form, NReq=555928603.
 Requested convergence on RMS density matrix=1.00D-08 within 128 cycles.
 Requested convergence on MAX density matrix=1.00D-06.
 Requested convergence on             energy=1.00D-06.
 No special actions if energy rises.
 Integral accuracy reduced to 1.0D-05 until final iterations.
 Initial convergence to 1.0D-05 achieved.  Increase integral accuracy.
 SCF Done:  E(RPBE1PBE) =  -961.129533136     A.U. after   12 cycles
            NFock= 12  Conv=0.84D-08     -V/T= 2.0024
   1 Symmetry operations used in ECPInt.
 ECPInt:  NShTT=    4095 NPrTT=   14218 LenC2=    3947 LenP2D=   10435.
 LDataN:  DoStor=T MaxTD1= 7 Len=  274
 Calling FoFJK, ICntrl=      2127 FMM=F ISym2X=0 I1Cent= 0 IOpClX= 0 NMat=1 NMatS=1 NMatT=0.
 -------------------------------------------------------------------
 Center     Atomic                   Forces (Hartrees/Bohr)
 Number     Number              X              Y              Z
 -------------------------------------------------------------------
      1       16          -0.048939387   -0.060650388   -0.173723114
      2        8           0.055195009    0.007331191    0.021392591
      3        8          -0.016098124    0.047265625    0.025846095
      4        8           0.027869224    0.038768072    0.081461020
      5        6          -0.022869609   -0.042031394    0.044111880
      6        9           0.002069212    0.000718279   -0.000714875
      7        9           0.003049444    0.005603139    0.001001766
      8        9          -0.000275769    0.002995477    0.000624636
 -------------------------------------------------------------------
 Cartesian Forces:  Max     0.173723114 RMS     0.048382098

 GradGradGradGradGradGradGradGradGradGradGradGradGradGradGradGradGradGrad
 Berny optimization.
 Using GEDIIS/GDIIS optimizer.
 FormGI is forming the generalized inverse of G from B-inverse, IUseBI=4.
 Internal  Forces:  Max     0.094351933 RMS     0.026571875
 Search for a local minimum.
 Step number   2 out of a maximum of   38
 All quantities printed in internal units (Hartrees-Bohrs-Radians)
 Mixed Optimization -- RFO/linear search
 Update second derivatives using D2CorX and points    1    2
 DE= -5.50D-02 DEPred=-5.23D-02 R= 1.05D+00
 TightC=F SS=  1.41D+00  RLast= 3.69D-01 DXNew= 5.0454D-01 1.1057D+00
 Trust test= 1.05D+00 RLast= 3.69D-01 DXMaxT set to 5.05D-01
 ITU=  1  0
 Use linear search instead of GDIIS.
     Eigenvalues ---    0.02101   0.08930   0.09288   0.10908   0.12137
     Eigenvalues ---    0.23037   0.25000   0.25000   0.25000   0.25000
     Eigenvalues ---    0.26479   0.31439   0.45380   0.55013   0.55021
     Eigenvalues ---    0.55086   1.27767   1.36618
 RFO step:  Lambda=-2.47398474D-02 EMin= 2.10096310D-02
 Quartic linear search produced a step of  1.03172.
 Iteration  1 RMS(Cart)=  0.05664639 RMS(Int)=  0.03409334
 Iteration  2 RMS(Cart)=  0.02975707 RMS(Int)=  0.00737076
 Iteration  3 RMS(Cart)=  0.00013554 RMS(Int)=  0.00737034
 Iteration  4 RMS(Cart)=  0.00000117 RMS(Int)=  0.00737034
 Iteration  5 RMS(Cart)=  0.00000004 RMS(Int)=  0.00737034
 Variable       Old X    -DE/DX   Delta X   Delta X   Delta X     New X
                                 (Linear)    (Quad)   (Total)
    R1        2.64719   0.05702   0.04844   0.02689   0.07533   2.72252
    R2        2.65520   0.05148   0.04639   0.02312   0.06951   2.72470
    R3        2.98719  -0.09435  -0.15042  -0.22416  -0.37458   2.61261
    R4        3.30355   0.05778   0.15396   0.05820   0.21216   3.51570
    R5        2.54845  -0.00166  -0.00277  -0.00223  -0.00500   2.54345
    R6        2.53752  -0.00621  -0.01404  -0.00347  -0.01751   2.52002
    R7        2.55165  -0.00069   0.00054  -0.00312  -0.00259   2.54906
    A1        2.11376  -0.00323   0.00147  -0.05881  -0.08641   2.02735
    A2        1.94350   0.01105   0.09449  -0.03106   0.06190   2.00540
    A3        1.85418  -0.01287  -0.10106   0.05412  -0.05798   1.79620
    A4        1.90950   0.01600   0.12644  -0.03706   0.08909   1.99859
    A5        1.86444  -0.01557  -0.10276   0.03846  -0.07499   1.78945
    A6        1.73716   0.00235  -0.00649   0.07041   0.06327   1.80042
    A7        1.95983  -0.00146  -0.01190   0.00754  -0.00456   1.95527
    A8        2.00086  -0.00154   0.03559  -0.06952  -0.03403   1.96683
    A9        1.95931  -0.00165  -0.01117   0.00711  -0.00418   1.95512
   A10        1.84267   0.00230  -0.00281   0.01986   0.01689   1.85956
   A11        1.85317   0.00024  -0.00497   0.01035   0.00518   1.85835
   A12        1.83610   0.00264  -0.00615   0.03153   0.02536   1.86146
    D1        2.29237  -0.01072  -0.08822   0.01060  -0.06926   2.22311
    D2       -1.88793  -0.00993  -0.07464  -0.00901  -0.07527  -1.96320
    D3        0.20584  -0.00884  -0.06506  -0.01304  -0.06981   0.13603
    D4        0.01365   0.01157   0.08421   0.02299   0.09850   0.11214
    D5        2.11653   0.01236   0.09779   0.00338   0.09249   2.20902
    D6       -2.07288   0.01345   0.10737  -0.00066   0.09795  -1.97494
    D7       -1.97168  -0.00191  -0.02040   0.02281   0.00280  -1.96888
    D8        0.13121  -0.00113  -0.00682   0.00319  -0.00322   0.12799
    D9        2.22498  -0.00004   0.00276  -0.00084   0.00225   2.22722
         Item               Value     Threshold  Converged?
 Maximum Force            0.094352     0.000450     NO 
 RMS     Force            0.026572     0.000300     NO 
 Maximum Displacement     0.229615     0.001800     NO 
 RMS     Displacement     0.065903     0.001200     NO 
 Predicted change in Energy=-3.884177D-02
 GradGradGradGradGradGradGradGradGradGradGradGradGradGradGradGradGradGrad

                          Input orientation:                          
 ---------------------------------------------------------------------
 Center     Atomic      Atomic             Coordinates (Angstroms)
 Number     Number       Type             X           Y           Z
 ---------------------------------------------------------------------
      1         16           0       -1.359619    0.711815    1.210621
      2          8           0        0.059326    0.721163    1.459826
      3          8           0       -2.066084    1.931924    1.512576
      4          8           0       -1.738675    0.107638    0.026270
      5          6           0       -2.001793   -0.457765    2.507113
      6          9           0       -2.996618    0.087932    3.231046
      7          9           0       -2.485430   -1.586618    1.987399
      8          9           0       -1.042215   -0.816258    3.384746
 ---------------------------------------------------------------------
                    Distance matrix (angstroms):
                    1          2          3          4          5
     1  S    0.000000
     2  O    1.440693   0.000000
     3  O    1.441851   2.446649   0.000000
     4  O    1.382533   2.379979   2.375778   0.000000
     5  C    1.860430   2.595168   2.589180   2.558026   0.000000
     6  F    2.674156   3.588452   2.686883   3.442876   1.345934
     7  F    2.674626   3.475624   3.575115   2.697067   1.333535
     8  F    2.676298   2.698587   3.479344   3.552183   1.348906
                    6          7          8
     6  F    0.000000
     7  F    2.147577   0.000000
     8  F    2.158905   2.151488   0.000000
 Symmetry turned off by external request.
 Stoichiometry    CF3O3S(1-)
 Framework group  C1[X(CF3O3S)]
 Deg. of freedom    18
 Full point group                 C1      NOp   1
 Rotational constants (GHZ):           2.8037901           1.5862030           1.5664643
 Standard basis: def2TZVP (5D, 7F)
   254 basis functions,   426 primitive gaussians,   294 cartesian basis functions
    37 alpha electrons       37 beta electrons
       nuclear repulsion energy       558.5917935886 Hartrees.
 NAtoms=    8 NActive=    8 NUniq=    8 SFac= 1.00D+00 NAtFMM=   60 NAOKFM=F Big=F
 Integral buffers will be    131072 words long.
 Raffenetti 2 integral format.
 Two-electron integral symmetry is turned off.
 Nuclear repulsion after empirical dispersion term =      558.5857935090 Hartrees.
 One-electron integrals computed using PRISM.
   1 Symmetry operations used in ECPInt.
 ECPInt:  NShTT=    4095 NPrTT=   14218 LenC2=    3946 LenP2D=   10393.
 LDataN:  DoStor=T MaxTD1= 6 Len=  172
 NBasis=   254 RedAO= T EigKep=  7.42D-04  NBF=   254
 NBsUse=   254 1.00D-06 EigRej= -1.00D+00 NBFU=   254
 Initial guess from the checkpoint file:  "OTf-_nosymm.chk"
 B after Tr=    -0.012885   -0.021615   -0.032062
         Rot=    0.999995    0.002680   -0.001443   -0.000102 Ang=   0.35 deg.
 ExpMin= 9.52D-02 ExpMax= 6.07D+04 ExpMxC= 2.07D+03 IAcc=3 IRadAn=         5 AccDes= 0.00D+00
 Harris functional with IExCor= 1009 and IRadAn=       5 diagonalized for initial guess.
 HarFok:  IExCor= 1009 AccDes= 0.00D+00 IRadAn=         5 IDoV= 1 UseB2=F ITyADJ=14
 ICtDFT=  3500011 ScaDFX=  1.000000  1.000000  1.000000  1.000000
 FoFCou: FMM=F IPFlag=           0 FMFlag=      100000 FMFlg1=           0
         NFxFlg=           0 DoJE=T BraDBF=F KetDBF=T FulRan=T
         wScrn=  0.000000 ICntrl=       500 IOpCl=  0 I1Cent=   200000004 NGrid=           0
         NMat0=    1 NMatS0=      1 NMatT0=    0 NMatD0=    1 NMtDS0=    0 NMtDT0=    0
 Symmetry not used in FoFCou.
 Keep R1 ints in memory in canonical form, NReq=555928603.
 Requested convergence on RMS density matrix=1.00D-08 within 128 cycles.
 Requested convergence on MAX density matrix=1.00D-06.
 Requested convergence on             energy=1.00D-06.
 No special actions if energy rises.
 Integral accuracy reduced to 1.0D-05 until final iterations.
 Initial convergence to 1.0D-05 achieved.  Increase integral accuracy.
 SCF Done:  E(RPBE1PBE) =  -961.154639323     A.U. after   12 cycles
            NFock= 12  Conv=0.81D-08     -V/T= 2.0022
   1 Symmetry operations used in ECPInt.
 ECPInt:  NShTT=    4095 NPrTT=   14218 LenC2=    3946 LenP2D=   10393.
 LDataN:  DoStor=T MaxTD1= 7 Len=  274
 Calling FoFJK, ICntrl=      2127 FMM=F ISym2X=0 I1Cent= 0 IOpClX= 0 NMat=1 NMatS=1 NMatT=0.
 -------------------------------------------------------------------
 Center     Atomic                   Forces (Hartrees/Bohr)
 Number     Number              X              Y              Z
 -------------------------------------------------------------------
      1       16           0.021584793    0.039512263    0.062905832
      2        8           0.007103795    0.002365900    0.004436183
      3        8           0.000486720    0.007189260    0.005255109
      4        8          -0.026547485   -0.043536882   -0.080982848
      5        6           0.001487377    0.001868719    0.012197886
      6        9           0.001423796   -0.002591658   -0.000436568
      7        9          -0.001342071   -0.005039030   -0.002008448
      8        9          -0.004196926    0.000231429   -0.001367146
 -------------------------------------------------------------------
 Cartesian Forces:  Max     0.080982848 RMS     0.025423240

 GradGradGradGradGradGradGradGradGradGradGradGradGradGradGradGradGradGrad
 Berny optimization.
 Using GEDIIS/GDIIS optimizer.
 FormGI is forming the generalized inverse of G from B-inverse, IUseBI=4.
 Internal  Forces:  Max     0.095678165 RMS     0.018443779
 Search for a local minimum.
 Step number   3 out of a maximum of   38
 All quantities printed in internal units (Hartrees-Bohrs-Radians)
 Mixed Optimization -- RFO/linear search
 Update second derivatives using D2CorX and points    2    3
 DE= -2.51D-02 DEPred=-3.88D-02 R= 6.46D-01
 TightC=F SS=  1.41D+00  RLast= 5.23D-01 DXNew= 8.4853D-01 1.5696D+00
 Trust test= 6.46D-01 RLast= 5.23D-01 DXMaxT set to 8.49D-01
 ITU=  1  1  0
 Use linear search instead of GDIIS.
     Eigenvalues ---    0.02101   0.09261   0.09412   0.11646   0.11907
     Eigenvalues ---    0.24425   0.24976   0.25000   0.25000   0.25027
     Eigenvalues ---    0.30771   0.35243   0.54872   0.55019   0.55056
     Eigenvalues ---    0.58467   1.23659   1.36497
 RFO step:  Lambda=-8.98788295D-03 EMin= 2.10050123D-02
 Quartic linear search produced a step of -0.23147.
 Iteration  1 RMS(Cart)=  0.03873447 RMS(Int)=  0.00067227
 Iteration  2 RMS(Cart)=  0.00050786 RMS(Int)=  0.00047908
 Iteration  3 RMS(Cart)=  0.00000022 RMS(Int)=  0.00047908
 Variable       Old X    -DE/DX   Delta X   Delta X   Delta X     New X
                                 (Linear)    (Quad)   (Total)
    R1        2.72252   0.00778  -0.01744   0.02011   0.00267   2.72519
    R2        2.72470   0.00695  -0.01609   0.01829   0.00220   2.72691
    R3        2.61261   0.09568   0.08670   0.05461   0.14132   2.75393
    R4        3.51570   0.01023  -0.04911   0.07563   0.02652   3.54222
    R5        2.54345  -0.00234   0.00116  -0.00453  -0.00337   2.54008
    R6        2.52002   0.00554   0.00405   0.00358   0.00763   2.52765
    R7        2.54906  -0.00394   0.00060  -0.00639  -0.00579   2.54327
    A1        2.02735  -0.00283   0.02000  -0.07546  -0.05363   1.97372
    A2        2.00540   0.00305  -0.01433   0.03534   0.02091   2.02631
    A3        1.79620  -0.00240   0.01342  -0.02469  -0.01071   1.78549
    A4        1.99859   0.00401  -0.02062   0.05285   0.03191   2.03050
    A5        1.78945  -0.00094   0.01736  -0.02492  -0.00708   1.78237
    A6        1.80042  -0.00252  -0.01464   0.03261   0.01782   1.81824
    A7        1.95527   0.00274   0.00106   0.00801   0.00907   1.96434
    A8        1.96683  -0.00106   0.00788  -0.02325  -0.01531   1.95152
    A9        1.95512   0.00286   0.00097   0.00847   0.00943   1.96455
   A10        1.85956  -0.00102  -0.00391   0.00409   0.00025   1.85981
   A11        1.85835  -0.00257  -0.00120  -0.00383  -0.00510   1.85324
   A12        1.86146  -0.00139  -0.00587   0.00724   0.00141   1.86288
    D1        2.22311  -0.00134   0.01603  -0.02235  -0.00687   2.21624
    D2       -1.96320  -0.00145   0.01742  -0.02781  -0.01098  -1.97418
    D3        0.13603  -0.00194   0.01616  -0.02888  -0.01335   0.12268
    D4        0.11214   0.00310  -0.02280   0.08044   0.05833   0.17048
    D5        2.20902   0.00299  -0.02141   0.07497   0.05422   2.26324
    D6       -1.97494   0.00250  -0.02267   0.07390   0.05185  -1.92308
    D7       -1.96888   0.00005  -0.00065   0.01967   0.01899  -1.94989
    D8        0.12799  -0.00006   0.00074   0.01421   0.01488   0.14287
    D9        2.22722  -0.00055  -0.00052   0.01313   0.01252   2.23974
         Item               Value     Threshold  Converged?
 Maximum Force            0.095678     0.000450     NO 
 RMS     Force            0.018444     0.000300     NO 
 Maximum Displacement     0.150653     0.001800     NO 
 RMS     Displacement     0.038776     0.001200     NO 
 Predicted change in Energy=-7.835372D-03
 GradGradGradGradGradGradGradGradGradGradGradGradGradGradGradGradGradGrad

                          Input orientation:                          
 ---------------------------------------------------------------------
 Center     Atomic      Atomic             Coordinates (Angstroms)
 Number     Number       Type             X           Y           Z
 ---------------------------------------------------------------------
      1         16           0       -1.362799    0.711341    1.201210
      2          8           0        0.053023    0.737342    1.474065
      3          8           0       -2.027541    1.945859    1.542355
      4          8           0       -1.762551    0.087012   -0.053452
      5          6           0       -2.002214   -0.457453    2.519803
      6          9           0       -3.005490    0.075389    3.238314
      7          9           0       -2.472579   -1.592857    1.991863
      8          9           0       -1.050956   -0.806803    3.405439
 ---------------------------------------------------------------------
                    Distance matrix (angstroms):
                    1          2          3          4          5
     1  S    0.000000
     2  O    1.442108   0.000000
     3  O    1.443017   2.407057   0.000000
     4  O    1.457315   2.460193   2.464170   0.000000
     5  C    1.874464   2.597133   2.594601   2.641121   0.000000
     6  F    2.693076   3.592389   2.707641   3.518630   1.344150
     7  F    2.676952   3.475142   3.594806   2.740331   1.337575
     8  F    2.694556   2.708018   3.464384   3.642692   1.345842
                    6          7          8
     6  F    0.000000
     7  F    2.149576   0.000000
     8  F    2.150907   2.153391   0.000000
 Symmetry turned off by external request.
 Stoichiometry    CF3O3S(1-)
 Framework group  C1[X(CF3O3S)]
 Deg. of freedom    18
 Full point group                 C1      NOp   1
 Rotational constants (GHZ):           2.7550554           1.5584091           1.5444993
 Standard basis: def2TZVP (5D, 7F)
   254 basis functions,   426 primitive gaussians,   294 cartesian basis functions
    37 alpha electrons       37 beta electrons
       nuclear repulsion energy       553.4258109688 Hartrees.
 NAtoms=    8 NActive=    8 NUniq=    8 SFac= 1.00D+00 NAtFMM=   60 NAOKFM=F Big=F
 Integral buffers will be    131072 words long.
 Raffenetti 2 integral format.
 Two-electron integral symmetry is turned off.
 Nuclear repulsion after empirical dispersion term =      553.4198399889 Hartrees.
 One-electron integrals computed using PRISM.
   1 Symmetry operations used in ECPInt.
 ECPInt:  NShTT=    4095 NPrTT=   14218 LenC2=    3942 LenP2D=   10371.
 LDataN:  DoStor=T MaxTD1= 6 Len=  172
 NBasis=   254 RedAO= T EigKep=  8.40D-04  NBF=   254
 NBsUse=   254 1.00D-06 EigRej= -1.00D+00 NBFU=   254
 Initial guess from the checkpoint file:  "OTf-_nosymm.chk"
 B after Tr=    -0.000250   -0.000208   -0.001318
         Rot=    1.000000    0.000220    0.000053   -0.000267 Ang=   0.04 deg.
 ExpMin= 9.52D-02 ExpMax= 6.07D+04 ExpMxC= 2.07D+03 IAcc=3 IRadAn=         5 AccDes= 0.00D+00
 Harris functional with IExCor= 1009 and IRadAn=       5 diagonalized for initial guess.
 HarFok:  IExCor= 1009 AccDes= 0.00D+00 IRadAn=         5 IDoV= 1 UseB2=F ITyADJ=14
 ICtDFT=  3500011 ScaDFX=  1.000000  1.000000  1.000000  1.000000
 FoFCou: FMM=F IPFlag=           0 FMFlag=      100000 FMFlg1=           0
         NFxFlg=           0 DoJE=T BraDBF=F KetDBF=T FulRan=T
         wScrn=  0.000000 ICntrl=       500 IOpCl=  0 I1Cent=   200000004 NGrid=           0
         NMat0=    1 NMatS0=      1 NMatT0=    0 NMatD0=    1 NMtDS0=    0 NMtDT0=    0
 Symmetry not used in FoFCou.
 Keep R1 ints in memory in canonical form, NReq=555928603.
 Requested convergence on RMS density matrix=1.00D-08 within 128 cycles.
 Requested convergence on MAX density matrix=1.00D-06.
 Requested convergence on             energy=1.00D-06.
 No special actions if energy rises.
 Integral accuracy reduced to 1.0D-05 until final iterations.
 Initial convergence to 1.0D-05 achieved.  Increase integral accuracy.
 SCF Done:  E(RPBE1PBE) =  -961.159728089     A.U. after   12 cycles
            NFock= 12  Conv=0.31D-08     -V/T= 2.0026
   1 Symmetry operations used in ECPInt.
 ECPInt:  NShTT=    4095 NPrTT=   14218 LenC2=    3942 LenP2D=   10371.
 LDataN:  DoStor=T MaxTD1= 7 Len=  274
 Calling FoFJK, ICntrl=      2127 FMM=F ISym2X=0 I1Cent= 0 IOpClX= 0 NMat=1 NMatS=1 NMatT=0.
 -------------------------------------------------------------------
 Center     Atomic                   Forces (Hartrees/Bohr)
 Number     Number              X              Y              Z
 -------------------------------------------------------------------
      1       16           0.001529926    0.004081267   -0.007626384
      2        8           0.006776433   -0.006061871   -0.003391390
      3        8          -0.007710386    0.002275186   -0.003100445
      4        8           0.002588669    0.005367936    0.014437645
      5        6          -0.001929354   -0.003247747    0.004854911
      6        9           0.001507943   -0.000639530   -0.002138952
      7        9          -0.000395592   -0.003173524   -0.000006514
      8        9          -0.002367638    0.001398282   -0.003028871
 -------------------------------------------------------------------
 Cartesian Forces:  Max     0.014437645 RMS     0.004837307

 GradGradGradGradGradGradGradGradGradGradGradGradGradGradGradGradGradGrad
 Berny optimization.
 Using GEDIIS/GDIIS optimizer.
 FormGI is forming the generalized inverse of G from B-inverse, IUseBI=4.
 Internal  Forces:  Max     0.015440175 RMS     0.004485909
 Search for a local minimum.
 Step number   4 out of a maximum of   38
 All quantities printed in internal units (Hartrees-Bohrs-Radians)
 Mixed Optimization -- RFO/linear search
 Update second derivatives using D2CorX and points    2    3    4
 DE= -5.09D-03 DEPred=-7.84D-03 R= 6.49D-01
 TightC=F SS=  1.41D+00  RLast= 1.90D-01 DXNew= 1.4270D+00 5.7041D-01
 Trust test= 6.49D-01 RLast= 1.90D-01 DXMaxT set to 8.49D-01
 ITU=  1  1  1  0
 Use linear search instead of GDIIS.
     Eigenvalues ---    0.02059   0.09290   0.09358   0.11609   0.13117
     Eigenvalues ---    0.23861   0.24965   0.25000   0.25003   0.25058
     Eigenvalues ---    0.30412   0.32144   0.54891   0.55021   0.55091
     Eigenvalues ---    0.75357   1.19765   1.36434
 RFO step:  Lambda=-1.19892519D-03 EMin= 2.05937873D-02
 Quartic linear search produced a step of -0.22094.
 Iteration  1 RMS(Cart)=  0.02043754 RMS(Int)=  0.00033858
 Iteration  2 RMS(Cart)=  0.00033760 RMS(Int)=  0.00010561
 Iteration  3 RMS(Cart)=  0.00000007 RMS(Int)=  0.00010561
 Variable       Old X    -DE/DX   Delta X   Delta X   Delta X     New X
                                 (Linear)    (Quad)   (Total)
    R1        2.72519   0.00590  -0.00059   0.00457   0.00398   2.72917
    R2        2.72691   0.00477  -0.00049   0.00391   0.00342   2.73033
    R3        2.75393  -0.01544  -0.03122   0.01362  -0.01760   2.73633
    R4        3.54222   0.00439  -0.00586   0.01395   0.00809   3.55031
    R5        2.54008  -0.00252   0.00074  -0.00417  -0.00342   2.53665
    R6        2.52765   0.00284  -0.00169   0.00559   0.00391   2.53156
    R7        2.54327  -0.00403   0.00128  -0.00671  -0.00543   2.53784
    A1        1.97372   0.00678   0.01185   0.04021   0.05179   2.02551
    A2        2.02631  -0.00115  -0.00462  -0.01113  -0.01602   2.01029
    A3        1.78549   0.00082   0.00237   0.00378   0.00596   1.79145
    A4        2.03050  -0.00180  -0.00705  -0.01304  -0.02033   2.01017
    A5        1.78237   0.00145   0.00156   0.00625   0.00763   1.79000
    A6        1.81824  -0.00717  -0.00394  -0.03016  -0.03428   1.78397
    A7        1.96434  -0.00124  -0.00200  -0.00143  -0.00344   1.96089
    A8        1.95152   0.00238   0.00338   0.00683   0.01021   1.96173
    A9        1.96455  -0.00146  -0.00208  -0.00334  -0.00542   1.95913
   A10        1.85981  -0.00023  -0.00006   0.00049   0.00042   1.86023
   A11        1.85324   0.00124   0.00113   0.00070   0.00183   1.85507
   A12        1.86288  -0.00066  -0.00031  -0.00345  -0.00376   1.85912
    D1        2.21624   0.00411   0.00152   0.02244   0.02396   2.24020
    D2       -1.97418   0.00463   0.00243   0.02691   0.02934  -1.94485
    D3        0.12268   0.00444   0.00295   0.02496   0.02791   0.15059
    D4        0.17048  -0.00403  -0.01289  -0.02466  -0.03756   0.13291
    D5        2.26324  -0.00352  -0.01198  -0.02020  -0.03218   2.23105
    D6       -1.92308  -0.00370  -0.01146  -0.02215  -0.03361  -1.95670
    D7       -1.94989   0.00026  -0.00420  -0.00062  -0.00481  -1.95470
    D8        0.14287   0.00078  -0.00329   0.00385   0.00057   0.14344
    D9        2.23974   0.00059  -0.00277   0.00190  -0.00086   2.23888
         Item               Value     Threshold  Converged?
 Maximum Force            0.015440     0.000450     NO 
 RMS     Force            0.004486     0.000300     NO 
 Maximum Displacement     0.066677     0.001800     NO 
 RMS     Displacement     0.020433     0.001200     NO 
 Predicted change in Energy=-8.068057D-04
 GradGradGradGradGradGradGradGradGradGradGradGradGradGradGradGradGradGrad

                          Input orientation:                          
 ---------------------------------------------------------------------
 Center     Atomic      Atomic             Coordinates (Angstroms)
 Number     Number       Type             X           Y           Z
 ---------------------------------------------------------------------
      1         16           0       -1.352848    0.727697    1.212077
      2          8           0        0.069497    0.724617    1.462435
      3          8           0       -2.049804    1.953722    1.526147
      4          8           0       -1.763267    0.083680   -0.018169
      5          6           0       -2.002625   -0.457418    2.517056
      6          9           0       -3.004592    0.073637    3.235330
      7          9           0       -2.473394   -1.593543    1.985795
      8          9           0       -1.054075   -0.812562    3.398925
 ---------------------------------------------------------------------
                    Distance matrix (angstroms):
                    1          2          3          4          5
     1  S    0.000000
     2  O    1.444213   0.000000
     3  O    1.444826   2.450754   0.000000
     4  O    1.448001   2.441723   2.442145   0.000000
     5  C    1.878744   2.608280   2.607244   2.603352   0.000000
     6  F    2.692510   3.607902   2.714341   3.482276   1.342339
     7  F    2.691174   3.480527   3.601915   2.707993   1.339642
     8  F    2.691462   2.715755   3.485842   3.603155   1.342970
                    6          7          8
     6  F    0.000000
     7  F    2.150115   0.000000
     8  F    2.148634   2.149729   0.000000
 Symmetry turned off by external request.
 Stoichiometry    CF3O3S(1-)
 Framework group  C1[X(CF3O3S)]
 Deg. of freedom    18
 Full point group                 C1      NOp   1
 Rotational constants (GHZ):           2.7557985           1.5547043           1.5527869
 Standard basis: def2TZVP (5D, 7F)
   254 basis functions,   426 primitive gaussians,   294 cartesian basis functions
    37 alpha electrons       37 beta electrons
       nuclear repulsion energy       553.7102776162 Hartrees.
 NAtoms=    8 NActive=    8 NUniq=    8 SFac= 1.00D+00 NAtFMM=   60 NAOKFM=F Big=F
 Integral buffers will be    131072 words long.
 Raffenetti 2 integral format.
 Two-electron integral symmetry is turned off.
 Nuclear repulsion after empirical dispersion term =      553.7043037469 Hartrees.
 One-electron integrals computed using PRISM.
   1 Symmetry operations used in ECPInt.
 ECPInt:  NShTT=    4095 NPrTT=   14218 LenC2=    3945 LenP2D=   10369.
 LDataN:  DoStor=T MaxTD1= 6 Len=  172
 NBasis=   254 RedAO= T EigKep=  8.32D-04  NBF=   254
 NBsUse=   254 1.00D-06 EigRej= -1.00D+00 NBFU=   254
 Initial guess from the checkpoint file:  "OTf-_nosymm.chk"
 B after Tr=     0.003794    0.006518    0.003364
         Rot=    1.000000   -0.000515    0.000258    0.000043 Ang=  -0.07 deg.
 ExpMin= 9.52D-02 ExpMax= 6.07D+04 ExpMxC= 2.07D+03 IAcc=3 IRadAn=         5 AccDes= 0.00D+00
 Harris functional with IExCor= 1009 and IRadAn=       5 diagonalized for initial guess.
 HarFok:  IExCor= 1009 AccDes= 0.00D+00 IRadAn=         5 IDoV= 1 UseB2=F ITyADJ=14
 ICtDFT=  3500011 ScaDFX=  1.000000  1.000000  1.000000  1.000000
 FoFCou: FMM=F IPFlag=           0 FMFlag=      100000 FMFlg1=           0
         NFxFlg=           0 DoJE=T BraDBF=F KetDBF=T FulRan=T
         wScrn=  0.000000 ICntrl=       500 IOpCl=  0 I1Cent=   200000004 NGrid=           0
         NMat0=    1 NMatS0=      1 NMatT0=    0 NMatD0=    1 NMtDS0=    0 NMtDT0=    0
 Symmetry not used in FoFCou.
 Keep R1 ints in memory in canonical form, NReq=555928603.
 Requested convergence on RMS density matrix=1.00D-08 within 128 cycles.
 Requested convergence on MAX density matrix=1.00D-06.
 Requested convergence on             energy=1.00D-06.
 No special actions if energy rises.
 Integral accuracy reduced to 1.0D-05 until final iterations.
 Initial convergence to 1.0D-05 achieved.  Increase integral accuracy.
 SCF Done:  E(RPBE1PBE) =  -961.160501863     A.U. after   10 cycles
            NFock= 10  Conv=0.73D-08     -V/T= 2.0025
   1 Symmetry operations used in ECPInt.
 ECPInt:  NShTT=    4095 NPrTT=   14218 LenC2=    3945 LenP2D=   10369.
 LDataN:  DoStor=T MaxTD1= 7 Len=  274
 Calling FoFJK, ICntrl=      2127 FMM=F ISym2X=0 I1Cent= 0 IOpClX= 0 NMat=1 NMatS=1 NMatT=0.
 -------------------------------------------------------------------
 Center     Atomic                   Forces (Hartrees/Bohr)
 Number     Number              X              Y              Z
 -------------------------------------------------------------------
      1       16          -0.002986453   -0.003339702   -0.005038449
      2        8           0.001391571    0.001595429    0.000309937
      3        8           0.001748254    0.001742086    0.000622620
      4        8           0.000688108    0.001967526    0.001088589
      5        6          -0.000413935   -0.001372026    0.004511599
      6        9          -0.000338560   -0.000314919   -0.000973918
      7        9           0.000168475   -0.000591921   -0.000214031
      8        9          -0.000257459    0.000313527   -0.000306346
 -------------------------------------------------------------------
 Cartesian Forces:  Max     0.005038449 RMS     0.001896253

 GradGradGradGradGradGradGradGradGradGradGradGradGradGradGradGradGradGrad
 Berny optimization.
 Using GEDIIS/GDIIS optimizer.
 FormGI is forming the generalized inverse of G from B-inverse, IUseBI=4.
 Internal  Forces:  Max     0.003626604 RMS     0.001318884
 Search for a local minimum.
 Step number   5 out of a maximum of   38
 All quantities printed in internal units (Hartrees-Bohrs-Radians)
 Mixed Optimization -- RFO/linear search
 Update second derivatives using D2CorX and points    2    3    4    5
 DE= -7.74D-04 DEPred=-8.07D-04 R= 9.59D-01
 TightC=F SS=  1.41D+00  RLast= 1.05D-01 DXNew= 1.4270D+00 3.1546D-01
 Trust test= 9.59D-01 RLast= 1.05D-01 DXMaxT set to 8.49D-01
 ITU=  1  1  1  1  0
 Use linear search instead of GDIIS.
     Eigenvalues ---    0.02052   0.09286   0.09381   0.11934   0.14905
     Eigenvalues ---    0.24145   0.24777   0.24999   0.25008   0.25192
     Eigenvalues ---    0.27403   0.35082   0.54776   0.55022   0.55039
     Eigenvalues ---    0.73175   1.18922   1.36371
 RFO step:  Lambda=-2.07584169D-04 EMin= 2.05221659D-02
 Quartic linear search produced a step of -0.13589.
 Iteration  1 RMS(Cart)=  0.01396727 RMS(Int)=  0.00008299
 Iteration  2 RMS(Cart)=  0.00008271 RMS(Int)=  0.00001236
 Iteration  3 RMS(Cart)=  0.00000000 RMS(Int)=  0.00001236
 Variable       Old X    -DE/DX   Delta X   Delta X   Delta X     New X
                                 (Linear)    (Quad)   (Total)
    R1        2.72917   0.00142  -0.00054   0.00382   0.00328   2.73245
    R2        2.73033   0.00077  -0.00046   0.00311   0.00264   2.73297
    R3        2.73633  -0.00200   0.00239  -0.00511  -0.00272   2.73360
    R4        3.55031   0.00363  -0.00110   0.01671   0.01561   3.56592
    R5        2.53665  -0.00039   0.00047  -0.00207  -0.00160   2.53505
    R6        2.53156   0.00053  -0.00053   0.00233   0.00180   2.53335
    R7        2.53784  -0.00047   0.00074  -0.00295  -0.00221   2.53563
    A1        2.02551  -0.00279  -0.00704  -0.00590  -0.01289   2.01262
    A2        2.01029  -0.00068   0.00218  -0.00170   0.00048   2.01077
    A3        1.79145   0.00146  -0.00081   0.00378   0.00299   1.79443
    A4        2.01017  -0.00073   0.00276  -0.00151   0.00124   2.01140
    A5        1.79000   0.00184  -0.00104   0.00571   0.00469   1.79468
    A6        1.78397   0.00272   0.00466   0.00352   0.00817   1.79214
    A7        1.96089  -0.00031   0.00047  -0.00127  -0.00081   1.96009
    A8        1.96173  -0.00009  -0.00139   0.00011  -0.00128   1.96045
    A9        1.95913  -0.00009   0.00074  -0.00060   0.00013   1.95926
   A10        1.86023  -0.00002  -0.00006  -0.00090  -0.00096   1.85927
   A11        1.85507   0.00052  -0.00025   0.00372   0.00348   1.85855
   A12        1.85912   0.00003   0.00051  -0.00087  -0.00036   1.85876
    D1        2.24020  -0.00024  -0.00326   0.02046   0.01719   2.25739
    D2       -1.94485  -0.00056  -0.00399   0.01845   0.01445  -1.93040
    D3        0.15059  -0.00064  -0.00379   0.01698   0.01317   0.16376
    D4        0.13291   0.00152   0.00510   0.02320   0.02832   0.16123
    D5        2.23105   0.00121   0.00437   0.02119   0.02558   2.25664
    D6       -1.95670   0.00112   0.00457   0.01972   0.02430  -1.93239
    D7       -1.95470   0.00060   0.00065   0.02137   0.02201  -1.93268
    D8        0.14344   0.00028  -0.00008   0.01936   0.01928   0.16272
    D9        2.23888   0.00020   0.00012   0.01788   0.01800   2.25688
         Item               Value     Threshold  Converged?
 Maximum Force            0.003627     0.000450     NO 
 RMS     Force            0.001319     0.000300     NO 
 Maximum Displacement     0.031055     0.001800     NO 
 RMS     Displacement     0.013965     0.001200     NO 
 Predicted change in Energy=-1.230724D-04
 GradGradGradGradGradGradGradGradGradGradGradGradGradGradGradGradGradGrad

                          Input orientation:                          
 ---------------------------------------------------------------------
 Center     Atomic      Atomic             Coordinates (Angstroms)
 Number     Number       Type             X           Y           Z
 ---------------------------------------------------------------------
      1         16           0       -1.354355    0.726353    1.208764
      2          8           0        0.071147    0.723227    1.451040
      3          8           0       -2.033370    1.962396    1.529237
      4          8           0       -1.771105    0.095280   -0.024364
      5          6           0       -2.004750   -0.461776    2.522584
      6          9           0       -3.016368    0.064613    3.229086
      7          9           0       -2.463475   -1.604817    1.993228
      8          9           0       -1.058831   -0.805446    3.410022
 ---------------------------------------------------------------------
                    Distance matrix (angstroms):
                    1          2          3          4          5
     1  S    0.000000
     2  O    1.445948   0.000000
     3  O    1.446225   2.443491   0.000000
     4  O    1.446561   2.442341   2.443068   0.000000
     5  C    1.887004   2.619501   2.619955   2.617603   0.000000
     6  F    2.698497   3.623254   2.730815   3.483757   1.341492
     7  F    2.698126   3.483972   3.622884   2.727707   1.340593
     8  F    2.698014   2.729707   3.485403   3.621278   1.341798
                    6          7          8
     6  F    0.000000
     7  F    2.149426   0.000000
     8  F    2.149813   2.149262   0.000000
 Symmetry turned off by external request.
 Stoichiometry    CF3O3S(1-)
 Framework group  C1[X(CF3O3S)]
 Deg. of freedom    18
 Full point group                 C1      NOp   1
 Rotational constants (GHZ):           2.7580426           1.5433522           1.5429995
 Standard basis: def2TZVP (5D, 7F)
   254 basis functions,   426 primitive gaussians,   294 cartesian basis functions
    37 alpha electrons       37 beta electrons
       nuclear repulsion energy       552.8082267949 Hartrees.
 NAtoms=    8 NActive=    8 NUniq=    8 SFac= 1.00D+00 NAtFMM=   60 NAOKFM=F Big=F
 Integral buffers will be    131072 words long.
 Raffenetti 2 integral format.
 Two-electron integral symmetry is turned off.
 Nuclear repulsion after empirical dispersion term =      552.8022630564 Hartrees.
 One-electron integrals computed using PRISM.
   1 Symmetry operations used in ECPInt.
 ECPInt:  NShTT=    4095 NPrTT=   14218 LenC2=    3945 LenP2D=   10360.
 LDataN:  DoStor=T MaxTD1= 6 Len=  172
 NBasis=   254 RedAO= T EigKep=  8.47D-04  NBF=   254
 NBsUse=   254 1.00D-06 EigRej= -1.00D+00 NBFU=   254
 Initial guess from the checkpoint file:  "OTf-_nosymm.chk"
 B after Tr=     0.000664   -0.000254    0.000271
         Rot=    1.000000    0.000176    0.000132   -0.000218 Ang=   0.04 deg.
 ExpMin= 9.52D-02 ExpMax= 6.07D+04 ExpMxC= 2.07D+03 IAcc=3 IRadAn=         5 AccDes= 0.00D+00
 Harris functional with IExCor= 1009 and IRadAn=       5 diagonalized for initial guess.
 HarFok:  IExCor= 1009 AccDes= 0.00D+00 IRadAn=         5 IDoV= 1 UseB2=F ITyADJ=14
 ICtDFT=  3500011 ScaDFX=  1.000000  1.000000  1.000000  1.000000
 FoFCou: FMM=F IPFlag=           0 FMFlag=      100000 FMFlg1=           0
         NFxFlg=           0 DoJE=T BraDBF=F KetDBF=T FulRan=T
         wScrn=  0.000000 ICntrl=       500 IOpCl=  0 I1Cent=   200000004 NGrid=           0
         NMat0=    1 NMatS0=      1 NMatT0=    0 NMatD0=    1 NMtDS0=    0 NMtDT0=    0
 Symmetry not used in FoFCou.
 Keep R1 ints in memory in canonical form, NReq=555928603.
 Requested convergence on RMS density matrix=1.00D-08 within 128 cycles.
 Requested convergence on MAX density matrix=1.00D-06.
 Requested convergence on             energy=1.00D-06.
 No special actions if energy rises.
 Integral accuracy reduced to 1.0D-05 until final iterations.
 Initial convergence to 1.0D-05 achieved.  Increase integral accuracy.
 SCF Done:  E(RPBE1PBE) =  -961.160654598     A.U. after   10 cycles
            NFock= 10  Conv=0.28D-08     -V/T= 2.0026
   1 Symmetry operations used in ECPInt.
 ECPInt:  NShTT=    4095 NPrTT=   14218 LenC2=    3945 LenP2D=   10360.
 LDataN:  DoStor=T MaxTD1= 7 Len=  274
 Calling FoFJK, ICntrl=      2127 FMM=F ISym2X=0 I1Cent= 0 IOpClX= 0 NMat=1 NMatS=1 NMatT=0.
 -------------------------------------------------------------------
 Center     Atomic                   Forces (Hartrees/Bohr)
 Number     Number              X              Y              Z
 -------------------------------------------------------------------
      1       16           0.000422082    0.001221937   -0.002548022
      2        8          -0.000311420   -0.000657749    0.000372213
      3        8           0.000393567   -0.000688094    0.000819886
      4        8          -0.000497508    0.000179081    0.001009966
      5        6          -0.000151373   -0.000575414    0.001528097
      6        9          -0.000165761    0.000009380   -0.000709343
      7        9           0.000470685   -0.000199169   -0.000386083
      8        9          -0.000160272    0.000710028   -0.000086714
 -------------------------------------------------------------------
 Cartesian Forces:  Max     0.002548022 RMS     0.000806213

 GradGradGradGradGradGradGradGradGradGradGradGradGradGradGradGradGradGrad
 Berny optimization.
 Using GEDIIS/GDIIS optimizer.
 FormGI is forming the generalized inverse of G from B-inverse, IUseBI=4.
 Internal  Forces:  Max     0.001454675 RMS     0.000645466
 Search for a local minimum.
 Step number   6 out of a maximum of   38
 All quantities printed in internal units (Hartrees-Bohrs-Radians)
 Mixed Optimization -- En-DIIS/RFO-DIIS
 Update second derivatives using D2CorX and points    2    3    4    5    6
 DE= -1.53D-04 DEPred=-1.23D-04 R= 1.24D+00
 TightC=F SS=  1.41D+00  RLast= 6.68D-02 DXNew= 1.4270D+00 2.0047D-01
 Trust test= 1.24D+00 RLast= 6.68D-02 DXMaxT set to 8.49D-01
 ITU=  1  1  1  1  1  0
 Use linear search instead of GDIIS.
     Eigenvalues ---    0.00961   0.09311   0.09317   0.11858   0.14359
     Eigenvalues ---    0.22668   0.24840   0.25000   0.25007   0.25428
     Eigenvalues ---    0.29772   0.52943   0.54569   0.55031   0.55549
     Eigenvalues ---    0.71940   1.22260   1.36305
 RFO step:  Lambda=-1.82493054D-04 EMin= 9.61449003D-03
 Quartic linear search produced a step of  0.32508.
 Iteration  1 RMS(Cart)=  0.02563076 RMS(Int)=  0.00029212
 Iteration  2 RMS(Cart)=  0.00030126 RMS(Int)=  0.00000923
 Iteration  3 RMS(Cart)=  0.00000004 RMS(Int)=  0.00000923
 Variable       Old X    -DE/DX   Delta X   Delta X   Delta X     New X
                                 (Linear)    (Quad)   (Total)
    R1        2.73245  -0.00024   0.00107   0.00245   0.00352   2.73596
    R2        2.73297  -0.00059   0.00086   0.00162   0.00248   2.73545
    R3        2.73360  -0.00080  -0.00088  -0.00308  -0.00396   2.72964
    R4        3.56592   0.00028   0.00507   0.01163   0.01671   3.58263
    R5        2.53505  -0.00024  -0.00052  -0.00196  -0.00248   2.53258
    R6        2.53335   0.00016   0.00058   0.00199   0.00258   2.53593
    R7        2.53563  -0.00035  -0.00072  -0.00286  -0.00358   2.53205
    A1        2.01262   0.00080  -0.00419  -0.00077  -0.00499   2.00763
    A2        2.01077   0.00101   0.00016   0.00527   0.00541   2.01618
    A3        1.79443  -0.00139   0.00097  -0.00504  -0.00408   1.79035
    A4        2.01140   0.00091   0.00040   0.00403   0.00441   2.01582
    A5        1.79468  -0.00145   0.00152  -0.00482  -0.00332   1.79137
    A6        1.79214  -0.00096   0.00266  -0.00204   0.00060   1.79274
    A7        1.96009  -0.00045  -0.00026  -0.00277  -0.00304   1.95705
    A8        1.96045  -0.00049  -0.00042  -0.00449  -0.00492   1.95553
    A9        1.95926  -0.00035   0.00004  -0.00156  -0.00152   1.95774
   A10        1.85927   0.00046  -0.00031   0.00196   0.00163   1.86090
   A11        1.85855   0.00046   0.00113   0.00482   0.00596   1.86450
   A12        1.85876   0.00049  -0.00012   0.00291   0.00279   1.86155
    D1        2.25739   0.00030   0.00559   0.03689   0.04247   2.29986
    D2       -1.93040   0.00023   0.00470   0.03426   0.03896  -1.89143
    D3        0.16376   0.00027   0.00428   0.03373   0.03801   0.20177
    D4        0.16123   0.00055   0.00921   0.04163   0.05083   0.21206
    D5        2.25664   0.00048   0.00832   0.03900   0.04732   2.30395
    D6       -1.93239   0.00052   0.00790   0.03847   0.04637  -1.88602
    D7       -1.93268   0.00049   0.00716   0.03990   0.04705  -1.88563
    D8        0.16272   0.00042   0.00627   0.03727   0.04354   0.20626
    D9        2.25688   0.00046   0.00585   0.03674   0.04259   2.29947
         Item               Value     Threshold  Converged?
 Maximum Force            0.001455     0.000450     NO 
 RMS     Force            0.000645     0.000300     NO 
 Maximum Displacement     0.051090     0.001800     NO 
 RMS     Displacement     0.025639     0.001200     NO 
 Predicted change in Energy=-1.010181D-04
 GradGradGradGradGradGradGradGradGradGradGradGradGradGradGradGradGradGrad

                          Input orientation:                          
 ---------------------------------------------------------------------
 Center     Atomic      Atomic             Coordinates (Angstroms)
 Number     Number       Type             X           Y           Z
 ---------------------------------------------------------------------
      1         16           0       -1.354289    0.727102    1.203689
      2          8           0        0.074698    0.704877    1.435318
      3          8           0       -2.010969    1.970776    1.546347
      4          8           0       -1.795177    0.109164   -0.025232
      5          6           0       -2.005636   -0.464169    2.526887
      6          9           0       -3.037231    0.053199    3.208230
      7          9           0       -2.436439   -1.619180    1.996601
      8          9           0       -1.066063   -0.781937    3.427756
 ---------------------------------------------------------------------
                    Distance matrix (angstroms):
                    1          2          3          4          5
     1  S    0.000000
     2  O    1.447809   0.000000
     3  O    1.447538   2.442301   0.000000
     4  O    1.444464   2.446327   2.445818   0.000000
     5  C    1.895846   2.624115   2.624965   2.624179   0.000000
     6  F    2.702707   3.640330   2.737183   3.464262   1.340181
     7  F    2.702739   3.467288   3.643012   2.736092   1.341956
     8  F    2.703099   2.735280   3.465541   3.639889   1.339902
                    6          7          8
     6  F    0.000000
     7  F    2.150778   0.000000
     8  F    2.152010   2.151072   0.000000
 Symmetry turned off by external request.
 Stoichiometry    CF3O3S(1-)
 Framework group  C1[X(CF3O3S)]
 Deg. of freedom    18
 Full point group                 C1      NOp   1
 Rotational constants (GHZ):           2.7536745           1.5401589           1.5394099
 Standard basis: def2TZVP (5D, 7F)
   254 basis functions,   426 primitive gaussians,   294 cartesian basis functions
    37 alpha electrons       37 beta electrons
       nuclear repulsion energy       552.3028486783 Hartrees.
 NAtoms=    8 NActive=    8 NUniq=    8 SFac= 1.00D+00 NAtFMM=   60 NAOKFM=F Big=F
 Integral buffers will be    131072 words long.
 Raffenetti 2 integral format.
 Two-electron integral symmetry is turned off.
 Nuclear repulsion after empirical dispersion term =      552.2968879044 Hartrees.
 One-electron integrals computed using PRISM.
   1 Symmetry operations used in ECPInt.
 ECPInt:  NShTT=    4095 NPrTT=   14218 LenC2=    3945 LenP2D=   10365.
 LDataN:  DoStor=T MaxTD1= 6 Len=  172
 NBasis=   254 RedAO= T EigKep=  8.62D-04  NBF=   254
 NBsUse=   254 1.00D-06 EigRej= -1.00D+00 NBFU=   254
 Initial guess from the checkpoint file:  "OTf-_nosymm.chk"
 B after Tr=     0.002866    0.001116    0.001223
         Rot=    1.000000    0.000279    0.000370   -0.000450 Ang=   0.07 deg.
 ExpMin= 9.52D-02 ExpMax= 6.07D+04 ExpMxC= 2.07D+03 IAcc=3 IRadAn=         5 AccDes= 0.00D+00
 Harris functional with IExCor= 1009 and IRadAn=       5 diagonalized for initial guess.
 HarFok:  IExCor= 1009 AccDes= 0.00D+00 IRadAn=         5 IDoV= 1 UseB2=F ITyADJ=14
 ICtDFT=  3500011 ScaDFX=  1.000000  1.000000  1.000000  1.000000
 FoFCou: FMM=F IPFlag=           0 FMFlag=      100000 FMFlg1=           0
         NFxFlg=           0 DoJE=T BraDBF=F KetDBF=T FulRan=T
         wScrn=  0.000000 ICntrl=       500 IOpCl=  0 I1Cent=   200000004 NGrid=           0
         NMat0=    1 NMatS0=      1 NMatT0=    0 NMatD0=    1 NMtDS0=    0 NMtDT0=    0
 Symmetry not used in FoFCou.
 Keep R1 ints in memory in canonical form, NReq=555928603.
 Requested convergence on RMS density matrix=1.00D-08 within 128 cycles.
 Requested convergence on MAX density matrix=1.00D-06.
 Requested convergence on             energy=1.00D-06.
 No special actions if energy rises.
 Integral accuracy reduced to 1.0D-05 until final iterations.
 Initial convergence to 1.0D-05 achieved.  Increase integral accuracy.
 SCF Done:  E(RPBE1PBE) =  -961.160809948     A.U. after   10 cycles
            NFock= 10  Conv=0.60D-08     -V/T= 2.0026
   1 Symmetry operations used in ECPInt.
 ECPInt:  NShTT=    4095 NPrTT=   14218 LenC2=    3945 LenP2D=   10365.
 LDataN:  DoStor=T MaxTD1= 7 Len=  274
 Calling FoFJK, ICntrl=      2127 FMM=F ISym2X=0 I1Cent= 0 IOpClX= 0 NMat=1 NMatS=1 NMatT=0.
 -------------------------------------------------------------------
 Center     Atomic                   Forces (Hartrees/Bohr)
 Number     Number              X              Y              Z
 -------------------------------------------------------------------
      1       16           0.001709536    0.001834513    0.004479257
      2        8          -0.002048036   -0.001162649   -0.001177756
      3        8           0.000514815   -0.001814754   -0.000429697
      4        8          -0.000855215   -0.000300031   -0.000971212
      5        6           0.000730263    0.001412633   -0.003480829
      6        9          -0.000385178   -0.000378369    0.000152892
      7        9           0.000703444   -0.000017231    0.000559849
      8        9          -0.000369629    0.000425889    0.000867496
 -------------------------------------------------------------------
 Cartesian Forces:  Max     0.004479257 RMS     0.001522494

 GradGradGradGradGradGradGradGradGradGradGradGradGradGradGradGradGradGrad
 Berny optimization.
 Using GEDIIS/GDIIS optimizer.
 FormGI is forming the generalized inverse of G from B-inverse, IUseBI=4.
 Internal  Forces:  Max     0.002466434 RMS     0.000896166
 Search for a local minimum.
 Step number   7 out of a maximum of   38
 All quantities printed in internal units (Hartrees-Bohrs-Radians)
 Mixed Optimization -- En-DIIS/RFO-DIIS
 Swapping is turned off.
 Update second derivatives using D2CorX and points    2    3    4    5    6
                                                      7
 DE= -1.55D-04 DEPred=-1.01D-04 R= 1.54D+00
 TightC=F SS=  1.41D+00  RLast= 1.35D-01 DXNew= 1.4270D+00 4.0456D-01
 Trust test= 1.54D+00 RLast= 1.35D-01 DXMaxT set to 8.49D-01
 ITU=  1  1  1  1  1  1  0
     Eigenvalues ---    0.00186   0.09377   0.09604   0.11858   0.15846
     Eigenvalues ---    0.24483   0.24999   0.25005   0.25458   0.28036
     Eigenvalues ---    0.44165   0.52683   0.54887   0.55033   0.56625
     Eigenvalues ---    0.81805   1.30052   1.37557
 En-DIIS/RFO-DIIS/Sim-DIIS IScMMF=       -3 using points:     7    6
 RFO step:  Lambda=-5.11575046D-04.
 DidBck=F Rises=F RFO-DIIS coefs:    3.00000   -2.00000
 Iteration  1 RMS(Cart)=  0.09774863 RMS(Int)=  0.00406919
 Iteration  2 RMS(Cart)=  0.00422462 RMS(Int)=  0.00002267
 Iteration  3 RMS(Cart)=  0.00000614 RMS(Int)=  0.00002231
 Iteration  4 RMS(Cart)=  0.00000000 RMS(Int)=  0.00002231
 Variable       Old X    -DE/DX   Delta X   Delta X   Delta X     New X
                                 (Linear)    (Quad)   (Total)
    R1        2.73596  -0.00219   0.00703   0.00039   0.00742   2.74338
    R2        2.73545  -0.00189   0.00496  -0.00028   0.00468   2.74013
    R3        2.72964   0.00122  -0.00793   0.00008  -0.00785   2.72179
    R4        3.58263  -0.00247   0.03342   0.00813   0.04155   3.62418
    R5        2.53258   0.00023  -0.00495  -0.00201  -0.00697   2.52561
    R6        2.53593  -0.00043   0.00515   0.00203   0.00718   2.54311
    R7        2.53205   0.00022  -0.00716  -0.00323  -0.01039   2.52166
    A1        2.00763   0.00097  -0.00998   0.00179  -0.00825   1.99938
    A2        2.01618  -0.00023   0.01082  -0.00613   0.00470   2.02088
    A3        1.79035  -0.00012  -0.00817   0.00561  -0.00259   1.78776
    A4        2.01582  -0.00013   0.00883  -0.00581   0.00301   2.01882
    A5        1.79137  -0.00041  -0.00663   0.00676   0.00010   1.79147
    A6        1.79274  -0.00033   0.00120   0.00198   0.00318   1.79592
    A7        1.95705   0.00048  -0.00608   0.00028  -0.00584   1.95121
    A8        1.95553   0.00047  -0.00983   0.00526  -0.00461   1.95092
    A9        1.95774   0.00042  -0.00305   0.00092  -0.00213   1.95561
   A10        1.86090  -0.00035   0.00327  -0.00243   0.00078   1.86168
   A11        1.86450  -0.00073   0.01191  -0.00129   0.01062   1.87513
   A12        1.86155  -0.00041   0.00558  -0.00332   0.00225   1.86379
    D1        2.29986   0.00075   0.08495   0.08331   0.16826   2.46812
    D2       -1.89143   0.00097   0.07792   0.08406   0.16201  -1.72942
    D3        0.20177   0.00106   0.07603   0.08413   0.16019   0.36196
    D4        0.21206  -0.00010   0.10166   0.07660   0.17823   0.39029
    D5        2.30395   0.00011   0.09464   0.07735   0.17198   2.47594
    D6       -1.88602   0.00021   0.09274   0.07742   0.17016  -1.71587
    D7       -1.88563   0.00033   0.09410   0.07955   0.17363  -1.71200
    D8        0.20626   0.00054   0.08708   0.08031   0.16739   0.37365
    D9        2.29947   0.00064   0.08518   0.08038   0.16556   2.46503
         Item               Value     Threshold  Converged?
 Maximum Force            0.002466     0.000450     NO 
 RMS     Force            0.000896     0.000300     NO 
 Maximum Displacement     0.197564     0.001800     NO 
 RMS     Displacement     0.097735     0.001200     NO 
 Predicted change in Energy=-3.179552D-04
 GradGradGradGradGradGradGradGradGradGradGradGradGradGradGradGradGradGrad

                          Input orientation:                          
 ---------------------------------------------------------------------
[...]
          (Kelvin)            495.99   748.76   748.85   829.28   829.31
                              933.87  1091.26  1532.70  1673.26  1674.87
                             1784.10  1910.38  1910.99
 
 Zero-point correction=                           0.028105 (Hartree/Particle)
 Thermal correction to Energy=                    0.035123
 Thermal correction to Enthalpy=                  0.036067
 Thermal correction to Gibbs Free Energy=        -0.004156
 Sum of electronic and zero-point Energies=           -961.137768
 Sum of electronic and thermal Energies=              -961.130750
 Sum of electronic and thermal Enthalpies=            -961.129806
 Sum of electronic and thermal Free Energies=         -961.170030
 
                     E (Thermal)             CV                S
                      KCal/Mol        Cal/Mol-Kelvin    Cal/Mol-Kelvin
 Total                   22.040             23.914             84.657
 Electronic               0.000              0.000              0.000
 Translational            0.889              2.981             40.906
 Rotational               0.889              2.981             28.235
 Vibrational             20.262             17.952             15.516
 Vibration     1          0.597              1.971              4.315
 Vibration     2          0.636              1.845              2.170
 Vibration     3          0.636              1.845              2.169
 Vibration     4          0.693              1.672              1.411
 Vibration     5          0.723              1.586              1.190
 Vibration     6          0.723              1.586              1.190
 Vibration     7          0.875              1.205              0.609
 Vibration     8          0.875              1.205              0.609
 Vibration     9          0.933              1.082              0.492
 Vibration    10          0.933              1.082              0.492
                       Q            Log10(Q)             Ln(Q)
 Total Bot       0.816251D+02          1.911824          4.402137
 Total V=0       0.690481D+15         14.839152         34.168410
 Vib (Bot)       0.345583D-11        -11.461448        -26.390960
 Vib (Bot)    1  0.320112D+01          0.505302          1.163501
 Vib (Bot)    2  0.101859D+01          0.007999          0.018417
 Vib (Bot)    3  0.101831D+01          0.007881          0.018148
 Vib (Bot)    4  0.631416D+00         -0.199685         -0.459791
 Vib (Bot)    5  0.537092D+00         -0.269951         -0.621586
 Vib (Bot)    6  0.537018D+00         -0.270011         -0.621724
 Vib (Bot)    7  0.310043D+00         -0.508578         -1.171045
 Vib (Bot)    8  0.309992D+00         -0.508650         -1.171210
 Vib (Bot)    9  0.265338D+00         -0.576200         -1.326749
 Vib (Bot)   10  0.265320D+00         -0.576230         -1.326819
 Vib (V=0)       0.292335D+02          1.465880          3.375314
 Vib (V=0)    1  0.373994D+01          0.572864          1.319068
 Vib (V=0)    2  0.163469D+01          0.213435          0.491453
 Vib (V=0)    3  0.163444D+01          0.213370          0.491302
 Vib (V=0)    4  0.130541D+01          0.115747          0.266517
 Vib (V=0)    5  0.123380D+01          0.091246          0.210102
 Vib (V=0)    6  0.123375D+01          0.091227          0.210058
 Vib (V=0)    7  0.108833D+01          0.036759          0.084640
 Vib (V=0)    8  0.108830D+01          0.036748          0.084615
 Vib (V=0)    9  0.106604D+01          0.027775          0.063954
 Vib (V=0)   10  0.106603D+01          0.027771          0.063945
 Electronic      0.100000D+01          0.000000          0.000000
 Translational   0.714535D+08          7.854024         18.084557
 Rotational      0.330558D+06          5.519248         12.708539
 -------------------------------------------------------------------
 Center     Atomic                   Forces (Hartrees/Bohr)
 Number     Number              X              Y              Z
 -------------------------------------------------------------------
      1       16           0.000000565    0.000067688    0.000185864
      2        8           0.000073380   -0.000035500   -0.000044828
      3        8          -0.000032738   -0.000039593   -0.000027911
      4        8          -0.000052899   -0.000021454   -0.000092809
      5        6           0.000056682    0.000157954    0.000155105
      6        9          -0.000019823    0.000016929   -0.000027051
      7        9           0.000012012   -0.000133205   -0.000044340
      8        9          -0.000037179   -0.000012818   -0.000104030
 -------------------------------------------------------------------
 Cartesian Forces:  Max     0.000185864 RMS     0.000078773
 FormGI is forming the generalized inverse of G from B-inverse, IUseBI=4.

 GradGradGradGradGradGradGradGradGradGradGradGradGradGradGradGradGradGrad
 Berny optimization.
 Internal  Forces:  Max     0.000141087 RMS     0.000048094
 Search for a local minimum.
 Step number   1 out of a maximum of    2
 All quantities printed in internal units (Hartrees-Bohrs-Radians)
 Second derivative matrix not updated -- analytic derivatives used.
 ITU=  0
     Eigenvalues ---    0.00288   0.09541   0.09546   0.14042   0.14046
     Eigenvalues ---    0.16901   0.17806   0.17811   0.24296   0.24298
     Eigenvalues ---    0.30808   0.34612   0.34664   0.53218   0.56606
     Eigenvalues ---    0.62855   0.62893   0.66790
 Angle between quadratic step and forces=  68.44 degrees.
 Linear search not attempted -- first point.
 Iteration  1 RMS(Cart)=  0.00047715 RMS(Int)=  0.00000012
 Iteration  2 RMS(Cart)=  0.00000011 RMS(Int)=  0.00000001
 Variable       Old X    -DE/DX   Delta X   Delta X   Delta X     New X
                                 (Linear)    (Quad)   (Total)
    R1        2.73258   0.00008   0.00000   0.00012   0.00012   2.73270
    R2        2.73277  -0.00004   0.00000  -0.00006  -0.00006   2.73271
    R3        2.73253   0.00011   0.00000   0.00018   0.00018   2.73270
    R4        3.49838  -0.00004   0.00000  -0.00021  -0.00021   3.49817
    R5        2.53558   0.00002   0.00000   0.00001   0.00001   2.53558
    R6        2.53514   0.00014   0.00000   0.00045   0.00045   2.53559
    R7        2.53601  -0.00011   0.00000  -0.00041  -0.00041   2.53559
    A1        2.01631   0.00003   0.00000   0.00020   0.00020   2.01651
    A2        2.01669  -0.00003   0.00000  -0.00017  -0.00017   2.01652
    A3        1.78657   0.00004   0.00000   0.00022   0.00022   1.78679
    A4        2.01659  -0.00002   0.00000  -0.00009  -0.00009   2.01651
    A5        1.78694  -0.00002   0.00000  -0.00016  -0.00016   1.78678
    A6        1.78676   0.00001   0.00000   0.00003   0.00003   1.78679
    A7        1.95482  -0.00005   0.00000  -0.00027  -0.00027   1.95455
    A8        1.95458  -0.00000   0.00000  -0.00001  -0.00001   1.95458
    A9        1.95442  -0.00001   0.00000   0.00013   0.00013   1.95455
   A10        1.86480   0.00002   0.00000  -0.00006  -0.00006   1.86474
   A11        1.86450   0.00004   0.00000   0.00023   0.00023   1.86473
   A12        1.86475   0.00000   0.00000  -0.00001  -0.00001   1.86473
    D1       -3.14106   0.00002   0.00000  -0.00047  -0.00047  -3.14153
    D2       -1.04638   0.00001   0.00000  -0.00074  -0.00074  -1.04712
    D3        1.04795   0.00001   0.00000  -0.00067  -0.00067   1.04728
    D4        1.04797  -0.00001   0.00000  -0.00071  -0.00071   1.04726
    D5       -3.14054  -0.00003   0.00000  -0.00098  -0.00098  -3.14152
    D6       -1.04621  -0.00002   0.00000  -0.00091  -0.00091  -1.04712
    D7       -1.04656   0.00001   0.00000  -0.00056  -0.00056  -1.04712
    D8        1.04811  -0.00000   0.00000  -0.00083  -0.00083   1.04728
    D9       -3.14074  -0.00000   0.00000  -0.00076  -0.00076  -3.14150
         Item               Value     Threshold  Converged?
 Maximum Force            0.000141     0.000450     YES
 RMS     Force            0.000048     0.000300     YES
 Maximum Displacement     0.001138     0.001800     YES
 RMS     Displacement     0.000477     0.001200     YES
 Predicted change in Energy=-1.131806D-07
 Optimization completed.
    -- Stationary point found.
                           ----------------------------
                           !   Optimized Parameters   !
                           ! (Angstroms and Degrees)  !
 --------------------------                            --------------------------
 ! Name  Definition              Value          Derivative Info.                !
 --------------------------------------------------------------------------------
 ! R1    R(1,2)                  1.446          -DE/DX =    0.0001              !
 ! R2    R(1,3)                  1.4461         -DE/DX =    0.0                 !
 ! R3    R(1,4)                  1.446          -DE/DX =    0.0001              !
 ! R4    R(1,5)                  1.8513         -DE/DX =    0.0                 !
 ! R5    R(5,6)                  1.3418         -DE/DX =    0.0                 !
 ! R6    R(5,7)                  1.3415         -DE/DX =    0.0001              !
 ! R7    R(5,8)                  1.342          -DE/DX =   -0.0001              !
 ! A1    A(2,1,3)              115.5263         -DE/DX =    0.0                 !
 ! A2    A(2,1,4)              115.5477         -DE/DX =    0.0                 !
 ! A3    A(2,1,5)              102.363          -DE/DX =    0.0                 !
 ! A4    A(3,1,4)              115.5423         -DE/DX =    0.0                 !
 ! A5    A(3,1,5)              102.3841         -DE/DX =    0.0                 !
 ! A6    A(4,1,5)              102.374          -DE/DX =    0.0                 !
 ! A7    A(1,5,6)              112.0029         -DE/DX =    0.0                 !
 ! A8    A(1,5,7)              111.9893         -DE/DX =    0.0                 !
 ! A9    A(1,5,8)              111.98           -DE/DX =    0.0                 !
 ! A10   A(6,5,7)              106.845          -DE/DX =    0.0                 !
 ! A11   A(6,5,8)              106.8281         -DE/DX =    0.0                 !
 ! A12   A(7,5,8)              106.8421         -DE/DX =    0.0                 !
 ! D1    D(2,1,5,6)           -179.9693         -DE/DX =    0.0                 !
 ! D2    D(2,1,5,7)            -59.9533         -DE/DX =    0.0                 !
 ! D3    D(2,1,5,8)             60.0429         -DE/DX =    0.0                 !
 ! D4    D(3,1,5,6)             60.0445         -DE/DX =    0.0                 !
 ! D5    D(3,1,5,7)           -179.9395         -DE/DX =    0.0                 !
 ! D6    D(3,1,5,8)            -59.9433         -DE/DX =    0.0                 !
 ! D7    D(4,1,5,6)            -59.9635         -DE/DX =    0.0                 !
 ! D8    D(4,1,5,7)             60.0525         -DE/DX =    0.0                 !
 ! D9    D(4,1,5,8)           -179.9513         -DE/DX =    0.0                 !
 --------------------------------------------------------------------------------
 GradGradGradGradGradGradGradGradGradGradGradGradGradGradGradGradGradGrad


 ----------------------------------------------------------------------

 Electric dipole moment (input orientation):
 (Debye = 10**-18 statcoulomb cm , SI units = C m)
                  (au)            (Debye)         (10**-30 SI)
   Tot        0.380212D+01      0.966403D+01      0.322357D+02
   x          0.263940D+01      0.670870D+01      0.223778D+02
   y         -0.122488D+01     -0.311333D+01     -0.103849D+02
   z         -0.244732D+01     -0.622046D+01     -0.207492D+02

 Dipole polarizability, Alpha (input orientation).
 (esu units = cm**3 , SI units = C**2 m**2 J**-1)
 Alpha(0;0):
               (au)            (10**-24 esu)      (10**-40 SI)
   iso        0.428131D+02      0.634425D+01      0.705893D+01
   aniso      0.131047D+01      0.194192D+00      0.216068D+00
   xx         0.425314D+02      0.630251D+01      0.701249D+01
   yx         0.285421D+00      0.422951D-01      0.470596D-01
   yy         0.428955D+02      0.635645D+01      0.707251D+01
   zx        -0.313015D+00     -0.463841D-01     -0.516093D-01
   zy        -0.574522D+00     -0.851354D-01     -0.947259D-01
   zz         0.430124D+02      0.637379D+01      0.709179D+01

 ----------------------------------------------------------------------

 Dipole orientation:
    16         -0.03250059         -0.17409153         -3.70320861
     8          1.55181084          0.10658509         -1.49454765
     8          0.80474318         -2.03126584         -5.52473012
     8         -2.72443280         -0.10988272         -3.23837307
     6          0.50733846          2.83734101         -5.39983258
     9         -0.82192152          2.96483463         -7.55528068
     9         -0.16088720          4.84584835         -4.00473916
     9          2.94570954          3.15279333         -6.02125617

 Electric dipole moment (dipole orientation):
 (Debye = 10**-18 statcoulomb cm , SI units = C m)
                  (au)            (Debye)         (10**-30 SI)
   Tot        0.380212D+01      0.966403D+01      0.322357D+02
   x          0.000000D+00      0.000000D+00      0.000000D+00
   y          0.000000D+00      0.000000D+00      0.000000D+00
   z          0.380212D+01      0.966403D+01      0.322357D+02

 Dipole polarizability, Alpha (dipole orientation).
 (esu units = cm**3 , SI units = C**2 m**2 J**-1)
 Alpha(0;0):
               (au)            (10**-24 esu)      (10**-40 SI)
   iso        0.428131D+02      0.634425D+01      0.705893D+01
   aniso      0.131047D+01      0.194192D+00      0.216068D+00
   xx         0.424092D+02      0.628439D+01      0.699233D+01
   yx         0.173637D+00      0.257304D-01      0.286289D-01
   yy         0.433479D+02      0.642349D+01      0.714710D+01
   zx        -0.985522D-01     -0.146039D-01     -0.162491D-01
   zy        -0.547232D+00     -0.810914D-01     -0.902264D-01
   zz         0.426823D+02      0.632487D+01      0.703736D+01

 ----------------------------------------------------------------------
 Unable to Open any file for archive entry.
 1\1\GINC-NODE1\Freq\RPBE1PBE\def2TZVP\C1F3O3S1(1-)\WEICHI\15-Dec-2025\
 0\\#N Geom=AllCheck Guess=TCheck SCRF=Check GenChk RPBE1PBE/def2TZVP F
 req\\Charge and Spin multiplicity\\-1,1\S,-1.359998189,0.7152823198,1.
 2197545753\O,0.0237253666,0.3136761278,1.0972962636\O,-1.5822653821,2.
 0068125352,1.8311496652\O,-2.2007250741,0.4103868787,0.0834868606\C,-1
 .9981617052,-0.4495727188,2.5093440221\F,-3.2963289956,-0.2410305315,2
 .7769544069\F,-1.8802214553,-1.7312626727,2.1310850254\F,-1.3371324452
 ,-0.3244612286,3.6705259708\\Version=ES64L-G16RevC.01\HF=-961.1658731\
 RMSD=2.449e-09\RMSF=7.877e-05\ZeroPoint=0.0281049\Thermal=0.0351228\ET
 ot=-961.1307503\HTot=-961.1298061\GTot=-961.1700296\Dipole=-0.5303187,
 -0.9679955,1.0700252\DipoleDeriv=2.1454202,-0.1056832,0.1170412,-0.105
 6953,2.010855,0.2132639,0.1170821,0.2135048,1.9670361,-1.367916,0.1067
 155,0.1628879,0.1789199,-0.6758805,-0.023583,0.0967184,0.0020078,-0.66
 83628,-0.645683,0.0945905,0.0382263,0.052826,-1.3326802,-0.1824738,0.0
 342827,-0.2746029,-0.733677,-0.8515646,-0.046511,-0.372591,-0.0768421,
 -0.6590632,-0.106653,-0.30253,-0.0402431,-1.2015652,1.4511696,-0.02721
 29,0.0300977,-0.0271841,1.4160955,0.0553299,0.029991,0.0551085,1.40493
 78,-1.0191312,0.0501573,0.2203251,-0.0125826,-0.3315867,0.065616,0.277
 7462,0.0434537,-0.4024168,-0.284834,-0.020785,0.0424575,0.0155487,-1.0
 998335,-0.1124765,0.0458711,-0.0325368,-0.368142,-0.4274611,-0.0512711
 ,-0.2384446,-0.0249905,-0.3279064,0.0909764,-0.2991616,0.033308,-0.997
 8101\Polar=42.5314426,0.2854214,42.89547,-0.3130154,-0.5745222,43.0124
 48\Quadrupole=-2.4182467,3.3999467,-0.9817,3.5080363,6.1549845,-3.5514
 346\PG=C01 [X(C1F3O3S1)]\NImag=0\\0.97324445,-0.11103530,0.83099293,0.
 12325419,0.22435536,0.78546023,-0.54154908,0.12371071,0.04479120,0.590
 78129,0.12096649,-0.13033384,-0.01083233,-0.14800028,0.10983522,0.0472
 9164,-0.01179269,-0.10130697,-0.04612141,0.02341605,0.07306340,-0.1060
 9139,0.06248804,0.02948015,-0.00401583,0.04502622,0.01752623,0.0879360
 8,0.06409480,-0.48956932,-0.17834650,0.00781792,-0.00531351,-0.0134301
 9,-0.07903063,0.52297508,0.02963637,-0.17486460,-0.17710328,0.00085497
 ,-0.01285134,0.01437160,-0.02895128,0.21592423,0.16232274,-0.25439064,
 -0.05604558,-0.21870611,-0.02583860,-0.00466671,-0.04054439,0.01441317
 ,0.00368646,-0.00239006,0.26028686,-0.05488797,-0.11539334,-0.07384133
 ,0.01031205,0.01864030,0.00323248,-0.02062370,-0.00229270,-0.04224331,
 0.05990267,0.09232274,-0.22136154,-0.07635897,-0.40350731,-0.00358048,
 -0.00519895,0.01229971,-0.01782699,-0.01338969,-0.00703950,0.26039565,
 0.09829640,0.42110781,-0.03799263,-0.03449911,0.03821071,-0.02073353,-
 0.00493803,0.01171321,0.00027160,0.01418752,-0.00004223,-0.00765378,0.
 00498385,-0.02743473,0.49314212,-0.03452732,-0.08211516,0.06977822,0.0
 2357984,0.00178355,-0.01030852,-0.00234467,-0.01433908,0.00381025,-0.0
 0699193,0.00267026,-0.02228691,0.01197641,0.50916197,0.03822535,0.0697
 5403,-0.09633457,-0.01433422,-0.00022198,0.00491053,-0.00162587,-0.032
 48186,0.00007297,0.00018222,0.00393060,-0.00902789,-0.01360726,-0.0242
 5259,0.51322318,-0.03040032,0.02331705,-0.01042928,-0.00604406,-0.0067
 7819,0.00865210,0.00550679,-0.00803939,-0.00107151,0.00889708,-0.00165
 419,0.00661823,-0.25122138,0.00417530,0.05991176,0.36263739,-0.0090453
 3,0.00632526,-0.00218856,-0.00544636,-0.00068266,0.00337931,-0.0008061
 2,0.00073810,0.00105526,0.00137211,0.00029090,0.00241015,0.00833802,-0
 .07504595,0.00104818,-0.05662120,0.08424572,0.01913572,-0.01360987,0.0
 0610432,0.00742966,0.00384511,-0.00523247,-0.00231564,0.00580971,0.001
 42104,-0.00148903,0.00128341,-0.00150613,0.05608914,0.00252014,-0.0927
 4605,-0.04813501,0.01576140,0.08221588,0.00217793,-0.00382628,-0.00419
 390,0.00211606,-0.00131544,0.00000151,0.00044317,-0.00349599,0.0006858
 8,0.00174174,0.00068378,0.00256981,-0.07198833,0.00438060,0.00334729,-
 0.02330465,0.05850070,0.01911147,0.08118265,0.01496709,-0.02653719,-0.
 03532922,-0.00858495,0.00562424,0.00510461,-0.00428426,-0.01255779,0.0
 0810749,0.00201928,0.00507076,0.00983152,0.00194769,-0.26741164,-0.022
 63039,0.04313192,-0.02789381,-0.01798396,-0.03251634,0.34565402,-0.002
 44163,0.00586406,0.00634174,0.00137349,0.00048162,-0.00004768,0.000620
 81,0.00640792,0.00015984,0.00063593,0.00140810,0.00086253,0.00312513,-
 0.02795715,-0.08009174,0.01788976,-0.02370682,0.00344854,-0.00648795,0
 .09609656,0.10274748,-0.00499833,-0.00410953,-0.00240696,0.00528375,-0
 .00029405,0.00148112,0.00153642,0.00077931,0.00127786,0.00254417,0.001
 28353,0.00062005,-0.10382407,-0.00024823,-0.07209927,-0.06607085,0.003
 70817,-0.04982630,0.00763143,-0.01668044,-0.01471555,0.15789748,0.0094
 6755,0.00663066,0.00640436,-0.00338893,0.00044671,0.00039895,-0.000424
 89,0.00035922,0.00106201,0.00072369,-0.00130892,0.00669645,-0.00199635
 ,-0.07470394,0.00485401,0.00246870,0.01202244,0.00237406,-0.02241102,-
 0.02194859,-0.05859430,0.01556126,0.07850241,-0.03374010,-0.02334733,-
 0.01965416,0.00958677,0.00136183,0.00194188,0.00309259,0.00950637,0.00
 579459,0.00191581,0.00793366,-0.01318920,-0.06805397,0.00869656,-0.240
 00644,-0.03343606,0.00224109,0.00629487,-0.01503411,-0.04319662,-0.033
 42071,0.13566906,0.03680445,0.29223918\\-0.00000056,-0.00006769,-0.000
 18586,-0.00007338,0.00003550,0.00004483,0.00003274,0.00003959,0.000027
 91,0.00005290,0.00002145,0.00009281,-0.00005668,-0.00015795,-0.0001551
 0,0.00001982,-0.00001693,0.00002705,-0.00001201,0.00013321,0.00004434,
 0.00003718,0.00001282,0.00010403\\\@
 The archive entry for this job was punched.


 NATURE WILL TELL YOU A DIRECT LIE IF SHE CAN.

                                -- CHARLES DARWIN
 Job cpu time:       0 days  0 hours 31 minutes  4.0 seconds.
 Elapsed time:       0 days  0 hours  1 minutes  8.1 seconds.
 File lengths (MBytes):  RWF=     65 Int=      0 D2E=      0 Chk=      7 Scr=      1
 Normal termination of Gaussian 16 at Mon Dec 15 10:34:24 2025.
